C:\Users\XIA\Desktop\465\Project\Graphene_GB_Generator\Line30_Mis16\data_Line30_Mis16.lammps (written by ASE)

244	atoms
1	atom types
0.0	60	xlo xhi
0.0	10.7207649	ylo yhi
0.0	50	zlo zhi


Atoms

	1	1 17.5894119 4.84228598 25
	2	1 18.7600292 5.72166005 25
	3	1 10.8325298 9.04528853 25
	4	1 18.5915477 7.10087513 25
	5	1 19.7582987 7.98656701 25
	6	1 9.68587517 8.17659371 25
	7	1 8.37114829 8.74588715 25
	8	1 8.20826312 10.1565141 25
	9	1 38.3075373 1.61370228 25
	10	1 3.8103635 5.36038245 25
	11	1 24.9632465 5.78439393 25
	12	1 25.164677 4.35860322 25
	13	1 19.5946299 9.35759765 25
	14	1 4.46190418 10.4386395 25
	15	1 5.76498555 9.87438872 25
	16	1 2.01862662 10.1565141 25
	17	1 3.48459316 8.18163637 25
	18	1 3.32170799 9.59226333 25
	19	1 0.878430421 9.31013794 25
	20	1 25.3956695 1.51157675 25
	21	1 36.4415365 7.52058057 25
	22	1 39.4338982 0.771971823 25
	23	1 56.5154068 8.18163637 25
	24	1 55.0494403 6.20675863 25
	25	1 55.2123255 7.61738559 25
	26	1 20.5499874 0.907603583 25
	27	1 20.7135098 10.2257792 25
	28	1 24.8038658 8.63956087 25
	29	1 24.6713696 9.91158327 25
	30	1 22.1024864 9.64413084 25
	31	1 23.1582078 10.4980437 25
	32	1 25.5554669 10.7011082 25
	33	1 27.3278107 10.2050215 25
	34	1 27.4590327 8.96875885 25
	35	1 27.4802107 6.05608101 25
	36	1 28.7672764 6.84391609 25
	37	1 28.7556966 8.2156185 25
	38	1 26.1365732 7.95394405 25
	39	1 26.2758131 6.71091993 25
	40	1 9.85001116 6.78058246 25
	41	1 8.69691863 5.92463323 25
	42	1 8.8598038 4.51400627 25
	43	1 19.2303357 1.47376608 25
	44	1 18.0840872 0.609602173 25
	45	1 17.7592699 3.44973941 25
	46	1 19.0604989 2.87982214 25
	47	1 15.2869742 3.15088336 25
	48	1 16.5974856 2.57822188 25
	49	1 16.7661805 1.18099807 25
	50	1 20.057838 5.14518331 25
	51	1 20.2305369 3.74915143 25
	52	1 12.1542155 8.46935464 25
	53	1 13.3080364 9.34301346 25
	54	1 10.6664025 10.4348518 25
	55	1 4.9505597 6.20675863 25
	56	1 7.23095209 7.89951098 25
	57	1 5.92787072 8.46376176 25
	58	1 4.78767453 7.61738559 25
	59	1 7.39383726 6.48888402 25
	60	1 6.25364107 5.64250784 25
	61	1 36.2887675 6.14728886 25
	62	1 36.9681329 1.03751993 25
	63	1 31.2587555 6.75293161 25
	64	1 30.0341797 6.07776622 25
	65	1 57.0040624 1.69275235 25
	66	1 55.700981 1.12850157 25
	67	1 58.1442586 0.846376176 25
	68	1 59.4473399 1.41062696 25
	69	1 6.90518175 8.8817842e-15 25
	70	1 21.6832237 1.75815331 25
	71	1 21.5110153 3.18572063 25
	72	1 24.1130444 2.02297567 25
	73	1 23.0025638 1.20439122 25
	74	1 23.9288485 3.50449083 25
	75	1 22.6999453 4.04938366 25
	76	1 9.19626733 1.68812207 25
	77	1 9.3600411 0.290722635 25
	78	1 23.7501376 6.35797046 25
	79	1 23.5764725 7.6920482 25
	80	1 22.2596309 8.30114948 25
	81	1 22.5189032 5.45549153 25
	82	1 21.0767266 7.39791692 25
	83	1 21.2468977 6.03155308 25
	84	1 33.9394786 7.7791958 25
	85	1 35.2711799 8.40384185 25
	86	1 35.410029 9.75289189 25
	87	1 34.3797787 10.581378 25
	88	1 30.0681256 8.98770492 25
	89	1 31.377216 8.00393737 25
	90	1 32.7219216 8.70625881 25
	91	1 32.8373661 9.98887994 25
	92	1 11.156041 6.20313025 25
	93	1 12.3219141 7.08101406 25
	94	1 15.6132795 0.311245104 25
	95	1 18.2501918 9.93587011 25
	96	1 16.2802579 5.41830148 25
	97	1 15.1185139 4.54204831 25
	98	1 13.8026011 5.11815773 25
	99	1 13.6350661 6.5037636 25
	100	1 1.85574145 0.846376176 25
	101	1 0.552660079 1.41062696 25
	102	1 1.52997111 3.6676301 25
	103	1 0.389774908 2.82125392 25
	104	1 2.34439696 7.33526019 25
	105	1 2.50728213 5.92463323 25
	106	1 1.04131559 7.89951098 25
	107	1 0.0640045661 5.64250784 25
	108	1 1.36708593 5.07825706 25
	109	1 36.0112534 3.30350919 25
	110	1 35.8563063 1.8645739 25
	111	1 35.0029878 5.5594204 25
	112	1 32.3771047 4.42202087 25
	113	1 33.5958675 3.5898896 25
	114	1 34.8395801 4.14510151 25
	115	1 33.7850273 6.44083528 25
	116	1 32.5552814 5.85098811 25
	117	1 26.5053647 2.28104418 25
	118	1 26.2742602 3.85675871 25
	119	1 27.563065 4.67203093 25
	120	1 56.678292 9.59226333 25
	121	1 55.5380958 10.4386395 25
	122	1 57.9813734 10.1565141 25
	123	1 56.1896365 5.36038245 25
	124	1 57.1669475 3.10337931 25
	125	1 56.0267513 3.94975549 25
	126	1 38.4599083 3.02953979 25
	127	1 37.3076184 3.87673464 25
	128	1 37.4632523 5.28211298 25
	129	1 36.8226091 10.345632 25
	130	1 48.1784256 0.556775766 25
	131	1 50.8004635 1.68670648 25
	132	1 53.7463589 5.64250784 25
	133	1 54.2350144 9.87438872 25
	134	1 54.0721293 8.46376176 25
	135	1 51.7917369 10.1565141 25
	136	1 53.0948182 10.7207649 25
	137	1 7.71960761 3.6676301 25
	138	1 6.41652624 4.23188088 25
	139	1 7.88249278 2.25700314 25
	140	1 6.74229658 1.41062696 25
	141	1 10.1755505 3.94427123 25
	142	1 10.3421821 2.55445697 25
	143	1 11.3240248 4.81970553 25
	144	1 12.646795 4.24326208 25
	145	1 30.1797132 10.2586294 25
	146	1 17.2739407 7.68191855 25
	147	1 17.1078386 9.06381593 25
	148	1 15.7804495 9.64046452 25
	149	1 16.1122999 6.80278518 25
	150	1 14.6291416 8.76710867 25
	151	1 14.796318 7.38081082 25
	152	1 34.5180046 1.30284284 25
	153	1 32.1319834 1.57960188 25
	154	1 33.4295197 2.09709817 25
	155	1 31.9886718 0.0234884873 25
	156	1 31.2453747 3.90194678 25
	157	1 31.0426044 2.32451298 25
	158	1 29.9757808 4.69499476 25
	159	1 28.758751 3.99951083 25
	160	1 27.5548875 1.88907895 25
	161	1 27.8922626 0.108985444 25
	162	1 29.6655891 0.0993057763 25
	163	1 29.9714031 1.91637244 25
	164	1 28.7720973 2.63054277 25
	165	1 59.6102251 2.82125392 25
	166	1 58.4700289 3.6676301 25
	167	1 59.1215696 9.31013794 25
	168	1 39.285433 10.0894977 25
	169	1 37.7751567 8.12189198 25
	170	1 37.921169 9.49991505 25
	171	1 49.6646572 2.54034109 25
	172	1 48.3314569 1.96008089 25
	173	1 45.7100309 0.824627737 25
	174	1 54.72367 3.3855047 25
	175	1 54.5607848 1.97487774 25
	176	1 53.2577034 1.41062696 25
	177	1 52.1175072 2.25700314 25
	178	1 52.2803924 3.6676301 25
	179	1 53.5834738 4.23188088 25
	180	1 52.6061627 6.48888402 25
	181	1 52.7690479 7.89951098 25
	182	1 51.6288517 8.74588715 25
	183	1 50.3104803 8.17501559 25
	184	1 4.29901901 1.12850157 25
	185	1 2.83305247 3.10337931 25
	186	1 3.97324867 3.94975549 25
	187	1 2.99593764 1.69275235 25
	188	1 5.43921521 1.97487774 25
	189	1 5.27633004 3.3855047 25
	190	1 12.8145593 2.85224139 25
	191	1 14.1294268 2.27897036 25
	192	1 14.2977855 0.884614545 25
	193	1 11.6607478 1.98152931 25
	194	1 50.6436118 0.288011036 25
	195	1 59.9359954 5.64250784 25
	196	1 57.4927179 5.92463323 25
	197	1 57.655603 7.33526019 25
	198	1 58.6329141 5.07825706 25
	199	1 58.9586844 7.89951098 25
	200	1 40.7709798 1.35399488 25
	201	1 47.1956461 2.81049064 25
	202	1 45.8610253 2.22572197 25
	203	1 51.1401962 4.51400627 25
	204	1 51.3030814 5.92463323 25
	205	1 50.1545823 6.77717266 25
	206	1 49.820352 3.94249699 25
	207	1 11.8287963 0.586542265 25
	208	1 13.1403906 0.0124678141 25
	209	1 39.7779273 3.60979505 25
	210	1 40.922327 2.75989908 25
	211	1 41.9047631 0.506034964 25
	212	1 43.2396783 1.09031939 25
	213	1 44.3773238 0.239758638 25
	214	1 47.3459888 4.20887814 25
	215	1 47.6869227 7.04494615 25
	216	1 48.835032 6.18977438 25
	217	1 48.6855274 4.7967282 25
	218	1 49.1748043 9.02902532 25
	219	1 49.3254321 10.4233903 25
	220	1 47.837331 8.44226465 25
	221	1 46.6993528 9.29474371 25
	222	1 46.8506936 10.6936769 25
	223	1 39.9307331 5.0114219 25
	224	1 38.7756516 5.86939819 25
	225	1 38.9270714 7.25690104 25
	226	1 41.2548742 5.59799113 25
	227	1 46.3576824 6.4573176 25
	228	1 46.2072026 5.06242151 25
	229	1 41.7549931 9.82677943 25
	230	1 41.4059253 6.99145705 25
	231	1 40.4094738 9.23908397 25
	232	1 40.2606906 7.84933243 25
	233	1 43.8820335 6.72490463 25
	234	1 42.8888334 8.97486479 25
	235	1 42.7387627 7.58016722 25
	236	1 44.2268257 9.56144601 25
	237	1 45.3643503 8.70904069 25
	238	1 45.2135141 7.31215127 25
	239	1 43.7311162 5.3294078 25
	240	1 43.39065 2.49219158 25
	241	1 44.7224226 3.0769105 25
	242	1 44.8732676 4.47551115 25
	243	1 42.24969 3.34328289 25
	244	1 42.4012604 4.74301463 25
