testGB_2Periodic.lammps (written by ASE)

504	atoms
1	atom types
0.0	200	xlo xhi
0.0	6.40113328	ylo yhi
0.0	10	zlo zhi


Atoms

	1	1 55.6971371 2.51193797 5
	2	1 54.6125874 1.59846003 5
	3	1 133.962279 6.16909562 5
	4	1 131.830047 4.34842848 5
	5	1 131.568989 5.71277879 5
	6	1 111.747034 6.17252138 5
	7	1 112.011012 4.80084996 5
	8	1 130.766571 3.42327549 5
	9	1 147.469607 0.252302647 5
	10	1 174.526095 5.25807377 5
	11	1 175.582008 4.34362616 5
	12	1 53.3500267 2.05390486 5
	13	1 51.2262839 1.51065464 5
	14	1 52.2100875 1.16515237 5
	15	1 187.197053 0.685835709 5
	16	1 122.306165 2.51473093 5
	17	1 130.232671 6.17705993 5
	18	1 115.970686 3.42917854 5
	19	1 113.330904 4.34362616 5
	20	1 123.890035 0.685835709 5
	21	1 123.626057 2.05750713 5
	22	1 143.564885 1.59206282 5
	23	1 143.819422 0.249652554 5
	24	1 146.259096 0.729266126 5
	25	1 99.3400543 0.228611903 5
	26	1 93.0045754 1.14305951 5
	27	1 92.7405971 2.51473093 5
	28	1 91.4207057 2.97195474 5
	29	1 95.38038 1.60028332 5
	30	1 96.7002714 1.14305951 5
	31	1 94.3244668 0.685835709 5
	32	1 101.451881 2.05750713 5
	33	1 91.1567274 4.34362616 5
	34	1 95.1164017 2.97195474 5
	35	1 93.7965102 3.42917854 5
	36	1 185.877162 0.228611903 5
	37	1 131.02596 2.0635447 5
	38	1 129.97123 1.13970141 5
	39	1 132.365377 1.59646484 5
	40	1 132.625249 0.233927526 5
	41	1 160.197967 1.60362169 5
	42	1 161.24969 0.681823016 5
	43	1 54.8749613 0.231641713 5
	44	1 193.79651 2.97195474 5
	45	1 141.411363 6.1830978 5
	46	1 140.343557 5.25476469 5
	47	1 145.125039 6.16949157 5
	48	1 142.997881 4.34685988 5
	49	1 142.734069 5.71310033 5
	50	1 106.995425 5.25807377 5
	51	1 109.371229 5.71529757 5
	52	1 108.051338 6.17252138 5
	53	1 121.250252 1.60028332 5
	54	1 104.091663 1.14305951 5
	55	1 105.411555 0.685835709 5
	56	1 114.122838 0.228611903 5
	57	1 115.178752 1.14305951 5
	58	1 113.594882 2.97195474 5
	59	1 114.914773 2.51473093 5
	60	1 112.802947 0.685835709 5
	61	1 112.538969 2.05750713 5
	62	1 128.641644 1.60028332 5
	63	1 146.00091 2.04846887 5
	64	1 145.387413 4.80267326 5
	65	1 144.567157 2.50025514 5
	66	1 144.302863 3.88919532 5
	67	1 150.001622 0.588181947 5
	68	1 148.755194 1.28870637 5
	69	1 172.150291 5.71529757 5
	70	1 173.206204 4.80084996 5
	71	1 158.591166 6.18299454 5
	72	1 66.8378121 2.51904396 5
	73	1 69.7673294 0.224073352 5
	74	1 70.8220977 1.14593525 5
	75	1 68.169953 2.0527048 5
	76	1 68.431011 0.688354496 5
	77	1 103.03575 0.228611903 5
	78	1 101.715859 0.685835709 5
	79	1 91.9486622 0.228611903 5
	80	1 99.076076 1.60028332 5
	81	1 97.7561846 2.05750713 5
	82	1 100.131989 2.51473093 5
	83	1 105.675533 5.71529757 5
	84	1 90.3647925 2.05750713 5
	85	1 90.6287708 0.685835709 5
	86	1 92.2126405 5.25807377 5
	87	1 93.532532 4.80084996 5
	88	1 184.029314 3.42917854 5
	89	1 184.821248 1.14305951 5
	90	1 185.085227 2.51473093 5
	91	1 136.356577 0.224896846 5
	92	1 135.019196 0.690952931 5
	93	1 137.950491 4.79727819 5
	94	1 136.616752 5.26401935 5
	95	1 139.012303 5.72252325 5
	96	1 142.191611 2.0571451 5
	97	1 140.604643 3.89115406 5
	98	1 141.931471 3.42710884 5
	99	1 137.1522 2.51123879 5
	100	1 137.412459 1.14781679 5
	101	1 138.211114 3.43430377 5
	102	1 139.543883 2.9689377 5
	103	1 141.152276 1.13816322 5
	104	1 138.75253 0.681738308 5
	105	1 139.804309 1.60374312 5
	106	1 133.162188 3.88208933 5
	107	1 133.422546 2.52010549 5
	108	1 134.222572 4.80628516 5
	109	1 134.758951 2.0538493 5
	110	1 135.556722 4.33975546 5
	111	1 135.81707 2.97726162 5
	112	1 158.850327 1.13823359 5
	113	1 58.5886371 0.218035483 5
	114	1 57.0021194 2.0542734 5
	115	1 57.265931 0.688032952 5
	116	1 59.6564434 1.14636859 5
	117	1 53.1034468 3.48044553 5
	118	1 49.9983773 0.74863384 5
	119	1 188.252966 6.17252138 5
	120	1 185.613183 5.25807377 5
	121	1 184.293292 4.80084996 5
	122	1 110.427142 0.228611903 5
	123	1 121.51423 0.228611903 5
	124	1 116.498643 0.685835709 5
	125	1 120.458317 5.71529757 5
	126	1 123.0981 4.80084996 5
	127	1 122.042187 3.88640235 5
	128	1 120.722296 4.34362616 5
	129	1 122.834122 6.17252138 5
	130	1 114.386817 5.25807377 5
	131	1 115.706708 4.80084996 5
	132	1 124.417992 4.34362616 5
	133	1 124.68197 2.97195474 5
	134	1 125.473905 5.25807377 5
	135	1 126.001861 2.51473093 5
	136	1 146.896553 2.92068775 5
	137	1 148.585962 2.47489684 5
	138	1 149.180824 3.15344048 5
	139	1 146.649973 4.34722842 5
	140	1 147.789912 5.23598091 5
	141	1 148.773716 4.89047864 5
	142	1 150.001623 5.65249944 5
	143	1 170.02908 1.13980852 5
	144	1 160.989828 5.72239674 5
	145	1 160.458478 2.96901936 5
	146	1 159.397762 3.89104104 5
	147	1 159.658929 5.25484209 5
	148	1 64.18293 3.42387166 5
	149	1 62.0495089 1.60385509 5
	150	1 60.9876974 0.678610032 5
	151	1 66.5774542 3.88102779 5
	152	1 65.2410492 4.34728398 5
	153	1 102.507794 2.97195474 5
	154	1 103.827685 2.51473093 5
	155	1 102.243815 4.34362616 5
	156	1 104.883598 3.42917854 5
	157	1 103.299729 5.25807377 5
	158	1 104.61962 4.80084996 5
	159	1 88.2529662 0.228611903 5
	160	1 85.8771616 6.17252138 5
	161	1 175.31803 2.97195474 5
	162	1 177.165878 6.17252138 5
	163	1 176.9019 4.80084996 5
	164	1 177.957813 3.88640235 5
	165	1 179.277704 4.34362616 5
	166	1 179.541683 5.71529757 5
	167	1 180.069639 2.05750713 5
	168	1 182.709422 2.97195474 5
	169	1 181.653509 3.88640235 5
	170	1 180.333618 3.42917854 5
	171	1 168.974311 2.06335039 5
	172	1 162.05158 4.79737161 5
	173	1 161.790863 3.43416856 5
	174	1 53.9990898 4.35266441 5
	175	1 53.7409042 5.67186716 5
	176	1 55.4328426 3.90087814 5
	177	1 56.4351152 4.80907046 5
	178	1 50.8191764 3.2476928 5
	179	1 51.4140377 3.92623644 5
	180	1 56.1805781 6.15148073 5
	181	1 61.2474701 5.71939497 5
	182	1 61.7888861 2.96682951 5
	183	1 62.5875411 5.25331649 5
	184	1 62.8478004 3.88989449 5
	185	1 57.8083888 4.34398818 5
	186	1 58.8477244 5.26297006 5
	187	1 58.0685293 2.97402445 5
	188	1 59.395357 2.50997922 5
	189	1 60.456117 3.43219558 5
	190	1 60.1956914 4.79739016 5
	191	1 195.908337 1.14305951 5
	192	1 186.669096 4.34362616 5
	193	1 186.405118 2.97195474 5
	194	1 187.461031 2.05750713 5
	195	1 187.988988 4.80084996 5
	196	1 192.740597 3.88640235 5
	197	1 191.948662 6.17252138 5
	198	1 193.004575 5.25807377 5
	199	1 190.628771 5.71529757 5
	200	1 199.340054 6.17252138 5
	201	1 180.861574 6.17252138 5
	202	1 181.917487 5.25807377 5
	203	1 183.237379 5.71529757 5
	204	1 189.572858 0.228611903 5
	205	1 111.219077 2.51473093 5
	206	1 110.955099 3.88640235 5
	207	1 109.635207 4.34362616 5
	208	1 110.163164 1.60028332 5
	209	1 119.666382 3.42917854 5
	210	1 117.290578 2.97195474 5
	211	1 118.346491 3.88640235 5
	212	1 119.930361 2.05750713 5
	213	1 118.874448 1.14305951 5
	214	1 117.554556 1.60028332 5
	215	1 125.209926 0.228611903 5
	216	1 127.585731 0.685835709 5
	217	1 126.26584 1.14305951 5
	218	1 118.082513 5.25807377 5
	219	1 119.138426 6.17252138 5
	220	1 116.762621 5.71529757 5
	221	1 128.377666 2.97195474 5
	222	1 127.849709 5.71529757 5
	223	1 127.057774 3.42917854 5
	224	1 126.793796 4.80084996 5
	225	1 129.439137 3.89121548 5
	226	1 129.177902 5.25519803 5
	227	1 72.1502907 0.685835709 5
	228	1 65.777428 1.59484812 5
	229	1 66.0377214 0.232037659 5
	230	1 64.4432779 2.06137782 5
	231	1 63.3832476 1.13711393 5
	232	1 81.653509 2.51473093 5
	233	1 80.3336176 2.97195474 5
	234	1 84.2932919 1.60028332 5
	235	1 85.6131833 1.14305951 5
	236	1 89.0449011 2.51473093 5
	237	1 86.4051182 3.42917854 5
	238	1 87.9889879 1.60028332 5
	239	1 86.6690965 2.05750713 5
	240	1 96.1723148 3.88640235 5
	241	1 97.4922063 3.42917854 5
	242	1 178.749748 1.60028332 5
	243	1 178.48577 0.228611903 5
	244	1 177.693835 2.51473093 5
	245	1 176.109965 0.685835709 5
	246	1 176.373943 2.05750713 5
	247	1 172.942226 3.42917854 5
	248	1 171.358356 1.60028332 5
	249	1 171.622334 2.97195474 5
	250	1 173.998139 2.51473093 5
	251	1 183.501357 0.685835709 5
	252	1 182.445444 1.60028332 5
	253	1 181.125552 1.14305951 5
	254	1 166.838846 3.88222099 5
	255	1 169.233846 3.42346462 5
	256	1 169.767559 6.17691404 5
	257	1 168.431755 5.71285485 5
	258	1 168.170608 4.34827896 5
	259	1 170.822363 5.25528986 5
	260	1 170.561041 3.89106153 5
	261	1 163.384915 5.26387474 5
	262	1 164.444864 4.33986575 5
	263	1 166.038988 6.16919332 5
	264	1 165.778587 4.80612852 5
	265	1 164.184409 2.97710779 5
	266	1 163.64519 0.224991559 5
	267	1 162.589366 1.1476752 5
	268	1 162.849724 2.51133457 5
	269	1 0.659945719 0.228611903 5
	270	1 6.46746804 4.80084996 5
	271	1 3.29972859 1.14305951 5
	272	1 7.78735948 5.25807377 5
	273	1 194.588445 0.685835709 5
	274	1 193.532532 1.60028332 5
	275	1 192.212641 1.14305951 5
	276	1 195.116402 3.42917854 5
	277	1 196.172315 2.51473093 5
	278	1 189.836836 1.60028332 5
	279	1 188.780923 2.51473093 5
	280	1 191.156727 2.05750713 5
	281	1 189.044901 3.88640235 5
	282	1 190.364793 4.34362616 5
	283	1 191.420706 3.42917854 5
	284	1 106.20349 2.97195474 5
	285	1 106.467468 1.60028332 5
	286	1 107.259403 3.88640235 5
	287	1 107.787359 1.14305951 5
	288	1 108.843273 2.05750713 5
	289	1 108.579294 3.42917854 5
	290	1 151.248003 1.28868827 5
	291	1 158.071253 3.42717379 5
	292	1 157.811044 2.05704786 5
	293	1 77.6938347 3.88640235 5
	294	1 76.3739433 4.34362616 5
	295	1 69.233429 2.97785779 5
	296	1 71.6223341 3.42917854 5
	297	1 70.5608632 2.50991781 5
	298	1 84.0293136 2.97195474 5
	299	1 85.0852268 3.88640235 5
	300	1 84.8212485 5.25807377 5
	301	1 82.7094222 3.42917854 5
	302	1 80.8615742 0.228611903 5
	303	1 81.9174873 1.14305951 5
	304	1 83.2373787 0.685835709 5
	305	1 87.1970531 5.71529757 5
	306	1 88.7809228 3.88640235 5
	307	1 89.8368359 4.80084996 5
	308	1 87.4610313 4.34362616 5
	309	1 89.5728576 6.17252138 5
	310	1 100.659946 6.17252138 5
	311	1 100.923924 4.80084996 5
	312	1 99.8680109 3.88640235 5
	313	1 98.2841411 5.71529757 5
	314	1 98.5481194 4.34362616 5
	315	1 96.9642497 6.17252138 5
	316	1 94.5884451 5.71529757 5
	317	1 95.9083365 5.25807377 5
	318	1 167.635511 1.59658309 5
	319	1 167.375512 0.233758572 5
	320	1 166.578377 2.51993855 5
	321	1 165.242475 2.05395613 5
	322	1 164.982121 0.690796698 5
	323	1 174.790074 0.228611903 5
	324	1 173.73416 1.14305951 5
	325	1 172.414269 0.685835709 5
	326	1 5.41155489 5.71529757 5
	327	1 7.2594029 2.51473093 5
	328	1 4.61962003 1.60028332 5
	329	1 6.20348975 3.42917854 5
	330	1 4.88359832 2.97195474 5
	331	1 6.99542462 1.14305951 5
	332	1 5.67553318 0.685835709 5
	333	1 9.3712292 0.685835709 5
	334	1 8.05133777 0.228611903 5
	335	1 49.1775728 3.24771335 5
	336	1 48.77044 1.51064455 5
	337	1 47.7867382 1.16518206 5
	338	1 51.2448063 5.11242692 5
	339	1 49.9983785 5.81295134 5
	340	1 52.5303927 6.14883064 5
	341	1 33.1611538 2.51891229 5
	342	1 8.57929434 2.97195474 5
	343	1 9.63520749 2.05750713 5
	344	1 10.9550989 2.51473093 5
	345	1 8.84327263 4.34362616 5
	346	1 63.6434226 6.17623644 5
	347	1 64.9808045 5.71018035 5
	348	1 194.324467 5.71529757 5
	349	1 196.700271 5.25807377 5
	350	1 195.38038 4.80084996 5
	351	1 198.548119 2.05750713 5
	352	1 199.076076 4.80084996 5
	353	1 199.868011 2.51473093 5
	354	1 197.492206 2.97195474 5
	355	1 197.756185 4.34362616 5
	356	1 196.96425 0.228611903 5
	357	1 198.284141 0.685835709 5
	358	1 154.002196 2.04850603 5
	359	1 156.183423 0.24957591 5
	360	1 156.438016 1.59211633 5
	361	1 155.435792 2.50018559 5
	362	1 150.822427 3.15341994 5
	363	1 151.417244 2.47492131 5
	364	1 153.106601 2.92064811 5
	365	1 153.353208 4.34725292 5
	366	1 151.22956 4.89048874 5
	367	1 152.213262 5.23595122 5
	368	1 155.700139 3.88924144 5
	369	1 154.615603 4.8026137 5
	370	1 157.26875 5.71316082 5
	371	1 157.004874 4.34677242 5
	372	1 154.87802 6.16953374 5
	373	1 79.5416827 0.685835709 5
	374	1 79.2777044 2.05750713 5
	375	1 77.957813 2.51473093 5
	376	1 72.9422255 2.97195474 5
	377	1 73.2062038 1.60028332 5
	378	1 73.9981387 3.88640235 5
	379	1 75.3180301 3.42917854 5
	380	1 80.0696393 4.34362616 5
	381	1 78.7497479 4.80084996 5
	382	1 76.109965 5.71529757 5
	383	1 37.1502757 3.88979871 5
	384	1 35.8155906 3.42402549 5
	385	1 39.0101716 0.678736543 5
	386	1 37.9484196 1.60376168 5
	387	1 38.209137 2.96696472 5
	388	1 39.5415219 3.43211393 5
	389	1 39.8020329 4.79751159 5
	390	1 41.149673 5.26289969 5
	391	1 33.9610115 0.231939962 5
	392	1 34.221413 1.59500476 5
	393	1 35.555136 2.06126754 5
	394	1 36.6150847 1.13725854 5
	395	1 41.4088344 0.218138745 5
	396	1 40.6022376 2.51009224 5
	397	1 40.3410709 1.14629119 5
	398	1 48.7519966 5.11244502 5
	399	1 48.5827559 3.92621197 5
	400	1 46.2560289 5.67191546 5
	401	1 47.4663992 6.14880439 5
	402	1 43.8165769 6.15155737 5
	403	1 33.421623 3.88119473 5
	404	1 32.6244884 6.16737471 5
	405	1 32.3644889 4.8045502 5
	406	1 34.757525 4.34717715 5
	407	1 35.0178791 5.71033658 5
	408	1 31.568245 0.688278434 5
	409	1 31.8293923 2.05285432 5
	410	1 30.2324408 0.224219244 5
	411	1 12.0110121 1.60028332 5
	412	1 27.8497093 0.685835709 5
	413	1 29.1776372 1.14584342 5
	414	1 152.533601 0.252328893 5
	415	1 153.743971 0.72921782 5
	416	1 77.1658781 0.228611903 5
	417	1 76.9018999 1.60028332 5
	418	1 75.5820084 2.05750713 5
	419	1 74.5260953 1.14305951 5
	420	1 83.501357 5.71529757 5
	421	1 82.4454439 4.80084996 5
	422	1 81.1255525 5.25807377 5
	423	1 78.4857696 6.17252138 5
	424	1 67.6346233 4.80466844 5
	425	1 67.3747511 6.16720576 5
	426	1 68.9740396 4.33758859 5
	427	1 42.1889562 4.34408543 5
	428	1 41.9287469 2.97395949 5
	429	1 43.5619843 4.80901696 5
	430	1 38.7503099 5.71931027 5
	431	1 37.4106343 5.25345808 5
	432	1 36.3548096 6.17614172 5
	433	1 11.7470338 0.228611903 5
	434	1 26.2658396 5.25807377 5
	435	1 28.3776659 3.42917854 5
	436	1 29.438959 2.51007175 5
	437	1 31.0256891 4.3377829 5
	438	1 30.7661544 2.97766867 5
	439	1 46.6467916 2.05388036 5
	440	1 44.5642077 3.9009477 5
	441	1 45.9978036 4.35262725 5
	442	1 46.8933993 3.48048517 5
	443	1 42.7312504 0.687972459 5
	444	1 42.9951262 2.05436086 5
	445	1 44.2998615 2.51189184 5
	446	1 45.3843971 1.59851959 5
	447	1 45.1219796 0.231599541 5
	448	1 0.923924006 1.60028332 5
	449	1 2.24381544 2.05750713 5
	450	1 0.131989144 3.88640235 5
	451	1 19.1384258 0.228611903 5
	452	1 26.0018613 3.88640235 5
	453	1 26.7937962 1.60028332 5
	454	1 27.0577745 2.97195474 5
	455	1 24.6819699 3.42917854 5
	456	1 23.6260567 4.34362616 5
	457	1 29.9709204 5.26132476 5
	458	1 27.585731 5.71529757 5
	459	1 28.6416442 4.80084996 5
	460	1 71.3583558 4.80084996 5
	461	1 70.0287704 5.26143187 5
	462	1 2.50779373 3.42917854 5
	463	1 3.82768517 3.88640235 5
	464	1 4.09166345 5.25807377 5
	465	1 1.45188058 4.34362616 5
	466	1 3.03575031 6.17252138 5
	467	1 1.71585887 5.71529757 5
	468	1 14.1228384 6.17252138 5
	469	1 13.5948818 3.42917854 5
	470	1 13.3309035 2.05750713 5
	471	1 14.3868167 1.14305951 5
	472	1 10.1631641 4.80084996 5
	473	1 11.2190772 3.88640235 5
	474	1 10.4271424 6.17252138 5
	475	1 12.8029469 5.71529757 5
	476	1 12.5389687 4.34362616 5
	477	1 20.4583173 0.685835709 5
	478	1 25.2099264 6.17252138 5
	479	1 23.890035 5.71529757 5
	480	1 74.7900736 6.17252138 5
	481	1 73.7341604 5.25807377 5
	482	1 72.414269 5.71529757 5
	483	1 18.0825127 1.14305951 5
	484	1 16.7626213 0.685835709 5
	485	1 18.346491 2.51473093 5
	486	1 15.7067081 1.60028332 5
	487	1 25.4739047 1.14305951 5
	488	1 24.4179916 2.05750713 5
	489	1 23.0981001 1.60028332 5
	490	1 22.8341219 0.228611903 5
	491	1 19.6663824 2.97195474 5
	492	1 22.3061653 3.88640235 5
	493	1 20.7222956 2.05750713 5
	494	1 22.042187 2.51473093 5
	495	1 16.498643 5.71529757 5
	496	1 17.5545561 4.80084996 5
	497	1 15.1787515 5.25807377 5
	498	1 14.9147732 3.88640235 5
	499	1 15.9706864 2.97195474 5
	500	1 17.2905778 3.42917854 5
	501	1 18.8744475 5.25807377 5
	502	1 19.9303607 4.34362616 5
	503	1 21.5142304 6.17252138 5
	504	1 21.2502521 4.80084996 5
