testGB_1Periodic.lammps (written by ASE)

250	atoms
1	atom types
0.0	100	xlo xhi
0.0	6.40113328	ylo yhi
0.0	50	zlo zhi


Atoms

	1	1 53.1366733 5.44235448 25
	2	1 51.4283778 4.98442034 25
	3	1 77.0962388 0.914447612 25
	4	1 75.7763474 0.457223806 25
	5	1 91.3510664 4.57223806 25
	6	1 91.6150446 5.94390948 25
	7	1 26.5994572 0.914447612 25
	8	1 47.764919 1.35688344 25
	9	1 61.9039435 5.95546161 25
	10	1 50.0015215 3.09765112 25
	11	1 51.263453 3.81449489 25
	12	1 75.5123691 5.48668567 25
	13	1 96.1026755 3.65779045 25
	14	1 97.9505235 0.457223806 25
	15	1 96.8946104 1.37167142 25
	16	1 99.270415 0.914447612 25
	17	1 97.1585887 2.74334284 25
	18	1 90.0311749 4.11501425 25
	19	1 80.2639783 4.57223806 25
	20	1 85.2795657 5.02946186 25
	21	1 85.0155875 3.65779045 25
	22	1 82.9037612 5.48668567 25
	23	1 84.2236526 5.94390948 25
	24	1 10.7607599 3.28626015e-14 25
	25	1 21.847848 2.84217094e-14 25
	26	1 18.6801086 3.65779045 25
	27	1 17.3602171 4.11501425 25
	28	1 13.1365645 0.457223806 25
	29	1 11.8166731 0.914447612 25
	30	1 27.391392 3.20056664 25
	31	1 27.6553703 1.82889522 25
	32	1 26.8634355 5.94390948 25
	33	1 48.7395219 3.81454211 25
	34	1 48.574633 4.9844735 25
	35	1 46.2189539 3.25179145 25
	36	1 47.4496371 2.76303045 25
	37	1 45.9654973 4.55909657 25
	38	1 46.86625 5.442462 25
	39	1 33.2639842 5.04143918 25
	40	1 32.2052162 4.10641221 25
	41	1 32.4601472 2.75521535 25
	42	1 38.6511618 3.19209742 25
	43	1 38.0979041 5.95574195 25
	44	1 40.2570448 1.36398783 25
	45	1 38.9065585 1.84277406 25
	46	1 41.3275682 2.3035031 25
	47	1 60.5519444 5.47917714 25
	48	1 60.2958807 4.12509106 25
	49	1 58.9295898 3.64856545 25
	50	1 58.1422476 5.93753343 25
	51	1 57.886433 4.57879961 25
	52	1 42.6697638 1.822503 25
	53	1 45.082709 2.27911794 25
	54	1 43.757532 2.77143702 25
	55	1 54.0374162 4.5590183 25
	56	1 55.4885651 5.02223295 25
	57	1 56.4954702 4.10265281 25
	58	1 48.7674996 1.00269538 25
	59	1 50.0015034 1.77534891 25
	60	1 95.574719 0.914447612 25
	61	1 69.4121571 5.93082034 25
	62	1 66.9929288 6.39151243 25
	63	1 62.160199 0.906245118 25
	64	1 61.095431 1.8424978 25
	65	1 61.3509038 3.19202546 25
	66	1 71.006655 1.36540719 25
	67	1 70.7486818 0.0104599509 25
	68	1 86.5994572 5.48668567 25
	69	1 88.9752618 5.02946186 25
	70	1 87.6553703 4.57223806 25
	71	1 76.5682823 4.57223806 25
	72	1 77.3602171 2.28611903 25
	73	1 77.8881737 5.02946186 25
	74	1 76.304304 3.20056664 25
	75	1 78.9440869 4.11501425 25
	76	1 78.6801086 2.74334284 25
	77	1 24.2236526 0.457223806 25
	78	1 25.2795657 1.37167142 25
	79	1 22.9037612 0.914447612 25
	80	1 19.7360217 4.57223806 25
	81	1 19.4720434 5.94390948 25
	82	1 28.9935857 1.36532383 25
	83	1 30.0470576 2.29613828 25
	84	1 31.4030728 1.82327668 25
	85	1 31.6606652 0.467747781 25
	86	1 28.4473052 4.11501425 25
	87	1 28.1833269 5.48668567 25
	88	1 29.7886592 3.6503556 25
	89	1 30.5882169 5.9306595 25
	90	1 30.8420423 4.58569337 25
	91	1 50.8325291 5.66921401 25
	92	1 49.1704682 5.66922659 25
	93	1 55.7483927 6.39989964 25
	94	1 33.0080241 6.39145888 25
	95	1 35.6813921 5.49862438 25
	96	1 34.6207777 4.56394846 25
	97	1 37.2920426 3.66923376 25
	98	1 37.0362531 5.02141887 25
	99	1 40.5137045 0.0116153636 25
	100	1 44.2544102 6.39999306 25
	101	1 44.5141741 5.02241983 25
	102	1 43.5072412 4.10274774 25
	103	1 52.5533654 2.76297641 25
	104	1 53.7838997 3.25164659 25
	105	1 59.745271 1.36390204 25
	106	1 59.4885372 0.0113515063 25
	107	1 58.6747877 2.30325026 25
	108	1 82.6397829 4.11501425 25
	109	1 81.3198914 3.65779045 25
	110	1 83.695696 3.20056664 25
	111	1 83.4317177 1.82889522 25
	112	1 94.7827841 3.20056664 25
	113	1 92.4069795 3.65779045 25
	114	1 93.7268709 4.11501425 25
	115	1 94.5188058 1.82889522 25
	116	1 70.2116214 3.65045278 25
	117	1 69.9531669 2.29597693 25
	118	1 69.1582257 4.58546966 25
	119	1 73.1365645 5.94390948 25
	120	1 74.1924777 5.02946186 25
	121	1 71.5526948 4.11501425 25
	122	1 71.8166731 5.48668567 25
	123	1 64.3199965 5.49834979 25
	124	1 62.9655332 5.02137189 25
	125	1 62.7096641 3.66895314 25
	126	1 99.5343933 2.28611903 25
	127	1 98.4784801 3.20056664 25
	128	1 89.7671966 2.74334284 25
	129	1 80.5279566 5.94390948 25
	130	1 9.4408685 0.457223806 25
	131	1 8.38495535 5.94390948 25
	132	1 37.8417267 0.906302906 25
	133	1 33.817339 2.27849687 25
	134	1 34.8765311 3.21220953 25
	135	1 36.2332863 2.73523515 25
	136	1 36.4890985 1.38412171 25
	137	1 42.9291102 0.46753678 25
	138	1 24.4876309 5.48668567 25
	139	1 26.0715006 3.65779045 25
	140	1 25.8075223 5.02946186 25
	141	1 25.0155875 2.74334284 25
	142	1 20.2639783 1.82889522 25
	143	1 20.5279566 0.457223806 25
	144	1 18.9440869 2.28611903 25
	145	1 11.0247382 5.02946186 25
	146	1 11.5526948 2.28611903 25
	147	1 12.608608 3.20056664 25
	148	1 12.3446297 4.57223806 25
	149	1 16.304304 3.20056664 25
	150	1 14.1924777 1.37167142 25
	151	1 14.9844125 3.65779045 25
	152	1 13.9284994 2.74334284 25
	153	1 29.2514899 0.0106086608 25
	154	1 14.7204343 5.02946186 25
	155	1 13.4005428 5.48668567 25
	156	1 54.920146 2.27903069 25
	157	1 56.2451159 2.77122974 25
	158	1 57.3328659 1.82240792 25
	159	1 57.073451 0.467312124 25
	160	1 51.2355669 1.00266404 25
	161	1 52.2380166 1.35679242 25
	162	1 84.4876309 0.914447612 25
	163	1 66.7368887 5.04119093 25
	164	1 67.7955981 4.10646947 25
	165	1 65.3805408 4.56394764 25
	166	1 73.4005428 0.914447612 25
	167	1 74.7204343 1.37167142 25
	168	1 74.9844125 2.74334284 25
	169	1 72.3446297 1.82889522 25
	170	1 73.9284994 3.65779045 25
	171	1 72.608608 3.20056664 25
	172	1 96.3666538 5.02946186 25
	173	1 35.4255363 0.448501902 25
	174	1 34.0732775 0.926234751 25
	175	1 46.6237923 0.457590567 25
	176	1 45.3408836 0.923620075 25
	177	1 22.6397829 2.28611903 25
	178	1 21.3198914 2.74334284 25
	179	1 21.0559131 4.11501425 25
	180	1 22.1118263 5.02946186 25
	181	1 23.695696 3.20056664 25
	182	1 23.4317177 4.57223806 25
	183	1 8.64893364 4.57223806 25
	184	1 9.17689022 1.82889522 25
	185	1 7.85699878 2.28611903 25
	186	1 7.59302049 3.65779045 25
	187	1 10.2328034 2.74334284 25
	188	1 9.96882508 4.11501425 25
	189	1 17.8881737 1.37167142 25
	190	1 16.5682823 1.82889522 25
	191	1 15.5123691 0.914447612 25
	192	1 39.4502538 5.47925651 25
	193	1 39.7062416 4.12536373 25
	194	1 41.072838 3.64865738 25
	195	1 42.1160375 4.57904074 25
	196	1 41.8602927 5.93762864 25
	197	1 54.661915 0.923455438 25
	198	1 53.3791759 0.457510981 25
	199	1 78.152152 2.39808173e-14 25
	200	1 87.391392 3.20056664 25
	201	1 86.0715006 2.74334284 25
	202	1 88.4473052 2.28611903 25
	203	1 88.1833269 0.914447612 25
	204	1 86.8634355 0.457223806 25
	205	1 85.8075223 1.37167142 25
	206	1 67.5405751 2.75498201 25
	207	1 68.5976057 1.82331308 25
	208	1 68.3399553 0.467548488 25
	209	1 65.1247058 3.21194414 25
	210	1 63.512463 1.38384582 25
	211	1 63.768353 2.73519778 25
	212	1 66.1838292 2.27850276 25
	213	1 95.3107407 5.94390948 25
	214	1 93.9908492 5.48668567 25
	215	1 93.1989144 1.37167142 25
	216	1 92.1430012 2.28611903 25
	217	1 90.8231098 1.82889522 25
	218	1 92.9349361 2.13162821e-14 25
	219	1 2.31345474 5.48668567 25
	220	1 5.48119419 1.82889522 25
	221	1 6.80108563 1.37167142 25
	222	1 2.84141132 2.74334284 25
	223	1 0.729585019 0.914447612 25
	224	1 15.7763474 5.94390948 25
	225	1 18.152152 6.40113328 25
	226	1 17.0962388 5.48668567 25
	227	1 81.0559131 2.28611903 25
	228	1 79.7360217 1.82889522 25
	229	1 82.1118263 1.37167142 25
	230	1 79.4720434 0.457223806 25
	231	1 64.5759334 0.448490534 25
	232	1 65.9278126 0.925982033 25
	233	1 98.7424584 4.57223806 25
	234	1 97.6865453 5.48668567 25
	235	1 89.2392401 3.55271368e-15 25
	236	1 90.5591315 0.457223806 25
	237	1 6.27312905 4.11501425 25
	238	1 5.21721591 3.20056664 25
	239	1 6.00915077 5.48668567 25
	240	1 3.89732447 3.65779045 25
	241	1 4.68925933 5.94390948 25
	242	1 3.63334618 5.02946186 25
	243	1 7.06506392 7.10542736e-15 25
	244	1 1.25754159 4.57223806 25
	245	1 1.52151988 3.20056664 25
	246	1 0.465606732 2.28611903 25
	247	1 4.42528104 0.914447612 25
	248	1 3.10538961 1.37167142 25
	249	1 2.04947646 0.457223806 25
	250	1 81.847848 2.66453526e-15 25
