testPoly_2Periodic.lammps (written by ASE)

4105	atoms
1	atom types
0.0	100	xlo xhi
0.0	100	ylo yhi
0.0	10	zlo zhi


Atoms

	1	1 52.044574 60.1732833 5
	2	1 50.0413576 62.0320057 5
	3	1 17.7536535 88.3820662 5
	4	1 7.24215853 88.3533883 5
	5	1 5.85288257 88.7887254 5
	6	1 4.82779324 87.5713426 5
	7	1 5.31795489 86.3910115 5
	8	1 8.76259228 83.5579204 5
	9	1 8.48556409 82.5737676 5
	10	1 44.2301041 1.63701626 5
	11	1 43.969694 0.354996591 5
	12	1 92.295967 5.77265502 5
	13	1 97.3125077 30.7206724 5
	14	1 8.85033022 42.8767527 5
	15	1 11.5236072 42.0654215 5
	16	1 25.989576 27.7559298 5
	17	1 52.8986094 59.4068324 5
	18	1 31.5629237 72.5582091 5
	19	1 30.5364116 73.5055422 5
	20	1 36.5481551 56.4346811 5
	21	1 36.3147521 55.1055332 5
	22	1 48.4179486 60.2230263 5
	23	1 49.7569396 60.5941117 5
	24	1 50.6577268 59.7859938 5
	25	1 48.1028604 58.8206959 5
	26	1 39.7576508 44.0650472 5
	27	1 41.2284009 55.5174203 5
	28	1 42.8974396 57.2022653 5
	29	1 42.5922619 55.9382554 5
	30	1 31.2557652 71.195557 5
	31	1 29.9220946 70.780238 5
	32	1 29.6149362 69.417586 5
	33	1 31.8780335 57.4523411 5
	34	1 26.3177705 26.3630717 5
	35	1 28.0561521 39.5467193 5
	36	1 10.1099994 98.6424402 5
	37	1 27.2317804 86.3668898 5
	38	1 28.6161494 86.8005144 5
	39	1 17.2170771 92.9208246 5
	40	1 16.8988067 93.8354655 5
	41	1 85.0828594 55.215312 5
	42	1 79.9655188 74.8720098 5
	43	1 81.1841629 73.6275194 5
	44	1 98.294479 56.1939117 5
	45	1 9.17998266 97.5697944 5
	46	1 8.23541213 89.5402388 5
	47	1 7.54203115 87.3944937 5
	48	1 9.10677913 86.0992435 5
	49	1 8.88348697 86.868993 5
	50	1 6.43253898 86.1511564 5
	51	1 7.97580625 84.7286644 5
	52	1 7.04454288 84.8527151 5
	53	1 3.82096267 20.6268284 5
	54	1 27.869195 2.9968728 5
	55	1 27.3954016 4.16326808 5
	56	1 39.0688265 10.2177295 5
	57	1 81.1483556 24.749579 5
	58	1 81.6325958 23.4450912 5
	59	1 91.4318108 15.7001223 5
	60	1 91.8405974 7.09318732 5
	61	1 82.822175 23.19395 5
	62	1 98.4154826 28.2846933 5
	63	1 98.8056399 27.1880548 5
	64	1 4.13778135 41.7786237 5
	65	1 9.16733276 41.516357 5
	66	1 10.5039712 41.1106914 5
	67	1 12.8602457 41.6597559 5
	68	1 2.50712897 33.4702745 5
	69	1 23.3298463 38.484623 5
	70	1 16.7402882 26.3136072 5
	71	1 15.1399064 26.4294823 5
	72	1 14.7320224 27.7570324 5
	73	1 18.1354277 30.0802275 5
	74	1 18.2256204 28.2311511 5
	75	1 17.2687316 27.8661754 5
	76	1 15.8345721 28.7369127 5
	77	1 55.4639571 85.0692401 5
	78	1 61.6230296 79.3852415 5
	79	1 53.4188843 70.4953862 5
	80	1 52.293353 61.6054555 5
	81	1 51.4423696 62.3988148 5
	82	1 62.6495416 78.4379084 5
	83	1 63.3688952 76.1279233 5
	84	1 62.3423831 77.0752563 5
	85	1 98.6867128 98.3722799 5
	86	1 42.1272516 80.9160503 5
	87	1 56.1603282 99.0201585 5
	88	1 55.249714 99.7233679 5
	89	1 46.9447021 91.2852527 5
	90	1 49.6120432 92.1158907 5
	91	1 31.0376686 53.4852287 5
	92	1 31.5849555 56.1521546 5
	93	1 34.9215572 54.666695 5
	94	1 33.9443847 55.6167979 5
	95	1 32.6109446 55.1834273 5
	96	1 32.317365 53.8939473 5
	97	1 33.211704 57.8676601 5
	98	1 35.5718867 57.335646 5
	99	1 34.2382161 56.920327 5
	100	1 38.9238131 43.3005017 5
	101	1 44.2115537 57.6044525 5
	102	1 44.5275243 58.9525806 5
	103	1 45.8318057 59.3313095 5
	104	1 46.8066933 58.4515919 5
	105	1 43.6021754 54.9309036 5
	106	1 40.2734824 56.4293854 5
	107	1 38.1969755 58.2052772 5
	108	1 38.8899384 56.0030833 5
	109	1 37.9535316 56.8792017 5
	110	1 30.7197439 96.2138701 5
	111	1 30.4770579 94.8028791 5
	112	1 31.2082931 98.9690195 5
	113	1 30.6414482 68.4702529 5
	114	1 27.3597901 64.9143107 5
	115	1 26.3332781 65.8616438 5
	116	1 26.8834823 23.7143823 5
	117	1 20.6534546 12.5962693 5
	118	1 21.4723624 6.3060993 5
	119	1 56.8881061 19.6938101 5
	120	1 40.3697625 10.0079949 5
	121	1 54.1246124 20.1034085 5
	122	1 47.0610196 15.0911333 5
	123	1 7.86601419 79.896317 5
	124	1 7.53251032 82.1805814 5
	125	1 7.25059487 80.5008127 5
	126	1 5.79258538 80.3516594 5
	127	1 26.601262 30.0901863 5
	128	1 28.2258323 28.2804773 5
	129	1 26.9451313 28.6054817 5
	130	1 29.3507026 24.3113725 5
	131	1 28.5871096 26.948004 5
	132	1 27.5592851 25.9318698 5
	133	1 27.843429 24.7887227 5
	134	1 31.3919716 33.566038 5
	135	1 34.0372602 33.0537913 5
	136	1 33.0739663 32.0202298 5
	137	1 31.8935603 32.23801 5
	138	1 27.470438 37.4302904 5
	139	1 27.2393618 38.3462921 5
	140	1 25.577204 38.9008069 5
	141	1 24.6903599 38.0521432 5
	142	1 31.6120135 36.1326088 5
	143	1 32.3650302 34.6254474 5
	144	1 33.4034534 34.513759 5
	145	1 28.2319947 37.0015527 5
	146	1 29.7606861 37.5405167 5
	147	1 30.7148454 36.1538273 5
	148	1 29.7260405 39.2992372 5
	149	1 30.1303927 38.576399 5
	150	1 11.2049605 58.3108994 5
	151	1 11.4051122 56.8647831 5
	152	1 20.5050676 47.8189055 5
	153	1 20.2831858 45.5824536 5
	154	1 20.7964756 46.1153489 5
	155	1 16.4042212 51.8060968 5
	156	1 17.0266719 49.1990594 5
	157	1 19.5248877 48.1772137 5
	158	1 20.5305169 50.5143393 5
	159	1 18.5902454 52.3188668 5
	160	1 17.9268145 51.5083419 5
	161	1 19.2784889 49.7882641 5
	162	1 18.2616925 50.2131993 5
	163	1 25.3624939 55.6069912 5
	164	1 20.4312976 53.9962109 5
	165	1 20.6652972 51.6431048 5
	166	1 19.9810766 52.3818889 5
	167	1 21.590386 60.5784561 5
	168	1 21.9166523 61.9637303 5
	169	1 23.1630528 62.34506 5
	170	1 20.7484338 56.638292 5
	171	1 20.9640513 57.9022047 5
	172	1 4.99005589 59.0971894 5
	173	1 9.66229783 99.940736 5
	174	1 29.8363106 92.1500046 5
	175	1 31.9011639 90.3533589 5
	176	1 29.6069849 85.886106 5
	177	1 30.3263384 83.5761208 5
	178	1 29.2998264 84.5234539 5
	179	1 28.1169492 95.30688 5
	180	1 28.8405887 93.058629 5
	181	1 29.1108873 94.3623576 5
	182	1 26.2674363 87.2707597 5
	183	1 28.8744246 88.1476129 5
	184	1 30.2588864 88.5767246 5
	185	1 29.5697015 90.804726 5
	186	1 30.5194544 89.9261241 5
	187	1 9.23576177 93.8996606 5
	188	1 10.650136 93.6780409 5
	189	1 11.5066582 94.6695124 5
	190	1 11.001023 96.0298412 5
	191	1 9.65314772 96.2603446 5
	192	1 8.78582747 95.225149 5
	193	1 13.719459 99.1871259 5
	194	1 12.3941457 99.4511988 5
	195	1 11.4567872 98.3618451 5
	196	1 11.9098628 97.0933398 5
	197	1 13.2515807 96.8289906 5
	198	1 14.1820939 97.9280603 5
	199	1 15.5210666 97.6610899 5
	200	1 15.982166 96.4554942 5
	201	1 7.83562894 1.52717287 5
	202	1 8.29099852 0.206640567 5
	203	1 92.3825483 65.5732825 5
	204	1 94.4612491 67.3672625 5
	205	1 88.8733283 70.3559715 5
	206	1 88.2854814 73.0452439 5
	207	1 77.509252 79.1685237 5
	208	1 91.2406612 82.8965249 5
	209	1 90.3240707 85.4560119 5
	210	1 91.5604976 81.6764324 5
	211	1 86.7787706 48.5235789 5
	212	1 87.159197 46.970565 5
	213	1 88.2956607 46.6766557 5
	214	1 87.3756542 50.8352817 5
	215	1 87.7428991 49.3427026 5
	216	1 79.3241342 46.7200444 5
	217	1 78.7086312 48.1182565 5
	218	1 79.6776616 49.1822727 5
	219	1 86.7088974 53.460052 5
	220	1 86.3778075 54.8472415 5
	221	1 84.7541295 56.533119 5
	222	1 80.8079089 72.7018679 5
	223	1 88.7352912 60.3453144 5
	224	1 88.3592932 61.7908105 5
	225	1 89.0614273 64.104402 5
	226	1 90.0883319 65.0053836 5
	227	1 91.3629124 64.6185524 5
	228	1 89.4057828 62.6841623 5
	229	1 86.8450943 68.524938 5
	230	1 84.6612316 63.0476045 5
	231	1 87.2124429 62.1174326 5
	232	1 97.2748431 55.2391816 5
	233	1 97.5918456 53.8787859 5
	234	1 93.0165534 62.8524912 5
	235	1 90.660279 62.3034267 5
	236	1 91.6799149 63.2581567 5
	237	1 97.0264689 61.6354944 5
	238	1 95.6898304 62.04116 5
	239	1 97.3434714 60.2750987 5
	240	1 97.9774765 57.5543073 5
	241	1 75.7299979 82.3199053 5
	242	1 74.4828827 81.9370462 5
	243	1 76.7837912 81.3037463 5
	244	1 76.5449851 80.1043263 5
	245	1 76.1098798 83.6546403 5
	246	1 77.1065222 83.9582905 5
	247	1 86.7900074 92.0535036 5
	248	1 7.37506878 99.1520128 5
	249	1 7.83043836 97.8314805 5
	250	1 6.50863007 94.43198 5
	251	1 7.36268196 95.4771889 5
	252	1 6.91450862 96.7768527 5
	253	1 4.61395827 92.4297061 5
	254	1 5.50283833 89.8279437 5
	255	1 4.10251237 90.1947831 5
	256	1 3.71662054 91.2660347 5
	257	1 8.79236292 91.647321 5
	258	1 7.93683385 90.6038474 5
	259	1 8.41295806 92.9074283 5
	260	1 6.92013217 93.1920972 5
	261	1 6.06731969 92.1271693 5
	262	1 6.44110127 90.9830255 5
	263	1 10.3863694 85.4893002 5
	264	1 11.4997896 86.1807624 5
	265	1 10.4109915 84.0326967 5
	266	1 9.79579679 89.0328351 5
	267	1 10.0034467 88.1348061 5
	268	1 11.4120448 87.4901967 5
	269	1 5.13949625 20.3694132 5
	270	1 38.5522523 11.4986025 5
	271	1 41.1324812 17.2767803 5
	272	1 41.7058659 15.8854409 5
	273	1 23.3586145 12.0736125 5
	274	1 35.2951726 0.103089191 5
	275	1 28.2497171 5.2980246 5
	276	1 29.2431084 2.79202194 5
	277	1 27.3370129 0.934009437 5
	278	1 27.0174109 1.81671123 5
	279	1 25.5478156 2.14874639 5
	280	1 40.2894815 0.435179276 5
	281	1 41.613768 0.866999083 5
	282	1 35.5842613 1.33599574 5
	283	1 34.3490416 2.47654063 5
	284	1 40.2808112 5.38638968 5
	285	1 38.8180218 7.698021 5
	286	1 36.9158879 9.35314377 5
	287	1 38.2193025 9.20381502 5
	288	1 50.4786726 1.83778925 5
	289	1 48.8795585 0.381100981 5
	290	1 50.0124129 0.709755438 5
	291	1 58.0561968 13.4483054 5
	292	1 61.8407397 10.4794772 5
	293	1 54.7584329 9.38986439 5
	294	1 53.277416 9.59636424 5
	295	1 54.8124586 5.84424955 5
	296	1 54.4201929 7.15687119 5
	297	1 55.1867554 8.09322248 5
	298	1 56.6122083 7.87322998 5
	299	1 57.414927 8.84322191 5
	300	1 59.1495212 10.9427561 5
	301	1 55.5054956 10.3437701 5
	302	1 55.0676086 11.623832 5
	303	1 55.8054191 12.5844761 5
	304	1 57.2808786 12.3911742 5
	305	1 57.7457697 11.1455303 5
	306	1 56.958093 10.1378169 5
	307	1 56.0198714 18.5995819 5
	308	1 54.6381245 18.8043811 5
	309	1 52.8336409 10.7963475 5
	310	1 53.1371277 13.0095125 5
	311	1 53.5778175 11.8255279 5
	312	1 80.6522126 22.3958274 5
	313	1 83.7952124 15.8528004 5
	314	1 76.8275088 19.5581929 5
	315	1 91.3800372 4.71802725 5
	316	1 90.0087379 4.98393178 5
	317	1 60.6629572 3.35379317 5
	318	1 93.6672663 5.50675049 5
	319	1 94.1226359 4.18621818 5
	320	1 95.9544953 6.29547373 5
	321	1 94.583196 6.56137826 5
	322	1 89.1434667 14.9146324 5
	323	1 90.0732959 16.0326498 5
	324	1 89.5637495 13.6958488 5
	325	1 90.6109631 18.2593 5
	326	1 89.6889321 17.1546128 5
	327	1 87.9420489 18.6223548 5
	328	1 88.3374346 17.4813357 5
	329	1 89.5533684 6.30446408 5
	330	1 90.4692981 7.35909185 5
	331	1 95.0437562 8.93653833 5
	332	1 94.1278264 7.88191056 5
	333	1 94.5883866 10.2570706 5
	334	1 93.2170873 10.5229752 5
	335	1 92.3011576 9.4683474 5
	336	1 92.7565271 8.14781509 5
	337	1 96.8756156 11.0457939 5
	338	1 95.5043163 11.3116984 5
	339	1 98.2417244 7.08419697 5
	340	1 96.8704251 7.3501015 5
	341	1 99.1576541 8.13882474 5
	342	1 96.4150555 8.6706338 5
	343	1 98.7022845 9.45935704 5
	344	1 97.3309852 9.72526157 5
	345	1 99.6182143 10.5139848 5
	346	1 92.6734117 37.6729055 5
	347	1 78.5983853 32.486176 5
	348	1 78.5049622 21.5953512 5
	349	1 79.4881147 22.6454135 5
	350	1 90.0658748 38.5559064 5
	351	1 81.6695021 38.0643842 5
	352	1 88.1968404 36.5903286 5
	353	1 1.71315199 32.8501999 5
	354	1 0.206967515 33.2773242 5
	355	1 12.7413243 56.4324364 5
	356	1 13.069935 55.1940057 5
	357	1 19.3466935 56.0807049 5
	358	1 19.2486493 54.8652383 5
	359	1 17.8993443 54.0953121 5
	360	1 13.8099654 52.5802541 5
	361	1 15.5425245 50.8603117 5
	362	1 15.8751364 49.5870738 5
	363	1 14.126175 51.2227967 5
	364	1 13.2187061 50.3220322 5
	365	1 11.2066047 43.4258172 5
	366	1 9.86996617 43.8314828 5
	367	1 7.51369173 43.2824183 5
	368	1 6.49405578 42.3276882 5
	369	1 5.1574173 42.7333538 5
	370	1 30.184815 33.8100114 5
	371	1 29.7540124 35.0129307 5
	372	1 27.6187063 34.6307172 5
	373	1 28.471203 35.319849 5
	374	1 6.81105832 40.9672925 5
	375	1 8.14769681 40.5616269 5
	376	1 13.1772482 40.2993602 5
	377	1 10.7418649 34.8262677 5
	378	1 11.0234098 33.6124596 5
	379	1 10.0004663 32.6000702 5
	380	1 10.3177274 31.374757 5
	381	1 4.7362669 29.0411085 5
	382	1 3.01548985 26.9129104 5
	383	1 4.1435678 31.7151969 5
	384	1 3.75930577 33.1218778 5
	385	1 26.4056838 34.9716303 5
	386	1 26.0703001 36.3223954 5
	387	1 24.944136 36.7727644 5
	388	1 15.5335227 40.8484247 5
	389	1 16.1361648 38.1541769 5
	390	1 14.8200806 38.5796835 5
	391	1 14.5138867 39.8936946 5
	392	1 18.3782384 43.6024387 5
	393	1 17.5252177 42.7754759 5
	394	1 20.7265244 39.2645649 5
	395	1 23.0341964 39.888727 5
	396	1 21.7795251 40.2519119 5
	397	1 24.7333194 28.1059858 5
	398	1 25.1114504 25.3538409 5
	399	1 25.3972321 24.1574148 5
	400	1 20.6255731 29.5135073 5
	401	1 22.3507296 29.3660739 5
	402	1 22.6604787 24.188952 5
	403	1 14.4930104 25.5611863 5
	404	1 13.0112971 25.7634765 5
	405	1 10.4189071 26.4712641 5
	406	1 9.11158863 26.7541328 5
	407	1 55.9735556 92.7218149 5
	408	1 57.3902877 93.1523759 5
	409	1 70.4634244 93.3648378 5
	410	1 71.1523711 94.0199611 5
	411	1 70.7339413 95.5692071 5
	412	1 63.9064546 95.1749936 5
	413	1 62.2956352 93.573615 5
	414	1 63.3559703 93.853991 5
	415	1 65.4426937 96.6617576 5
	416	1 64.7943258 95.3892172 5
	417	1 65.3041788 90.5683898 5
	418	1 64.2457824 91.5796586 5
	419	1 64.5128258 92.7194624 5
	420	1 45.4089097 84.4719924 5
	421	1 47.4619338 82.5773262 5
	422	1 59.5700054 81.2799077 5
	423	1 54.7446036 87.3792252 5
	424	1 55.7711156 86.4318921 5
	425	1 54.8496402 82.3439359 5
	426	1 54.5424817 80.9812838 5
	427	1 53.0066892 74.1680235 5
	428	1 55.0597134 72.2733573 5
	429	1 53.7260428 71.8580383 5
	430	1 52.6995307 72.8053714 5
	431	1 51.1091909 66.042451 5
	432	1 50.8335902 64.6470951 5
	433	1 51.7168778 63.8240518 5
	434	1 49.0685001 57.9434848 5
	435	1 50.3903471 58.3124165 5
	436	1 59.2628469 79.9172556 5
	437	1 60.289359 78.9699225 5
	438	1 64.7025658 76.5432422 5
	439	1 97.3154135 98.6381844 5
	440	1 53.6799421 99.031305 5
	441	1 53.5193895 98.0940651 5
	442	1 51.1620667 99.4717153 5
	443	1 39.3628252 68.6521816 5
	444	1 38.8535448 60.8915881 5
	445	1 39.1607033 62.2542402 5
	446	1 38.3363131 69.5995147 5
	447	1 32.8965943 72.9735281 5
	448	1 33.9231063 72.026195 5
	449	1 46.1460371 60.74126 5
	450	1 47.4665531 61.1095873 5
	451	1 30.0191799 82.2134687 5
	452	1 28.3783509 80.4354977 5
	453	1 28.6855094 81.7981498 5
	454	1 9.33818137 80.2039653 5
	455	1 9.62966661 81.5505553 5
	456	1 32.888643 89.4420481 5
	457	1 35.1732092 93.9181724 5
	458	1 54.5163258 97.0776756 5
	459	1 55.8123613 97.4794572 5
	460	1 44.1579743 95.4262424 5
	461	1 50.9795988 98.6375971 5
	462	1 52.0618439 97.5076581 5
	463	1 38.6324075 54.6769315 5
	464	1 37.2297172 54.2548558 5
	465	1 36.9779995 52.8925644 5
	466	1 37.8646809 52.0700757 5
	467	1 42.1542952 49.7421435 5
	468	1 33.5188625 59.2303122 5
	469	1 37.2216141 44.5282014 5
	470	1 37.6921642 43.5391052 5
	471	1 35.3644125 44.6629315 5
	472	1 28.4000026 96.5298803 5
	473	1 29.7266344 97.0128406 5
	474	1 29.9033493 98.5361313 5
	475	1 33.6159478 70.6635429 5
	476	1 32.2822773 70.2482239 5
	477	1 31.9751188 68.8855718 5
	478	1 22.4457057 64.6414348 5
	479	1 25.0542668 65.4633463 5
	480	1 23.4887571 63.722703 5
	481	1 24.7169379 64.1054244 5
	482	1 11.9650986 11.8165364 5
	483	1 10.5937993 12.0824409 5
	484	1 20.8222153 22.154869 5
	485	1 22.4058396 11.0242366 5
	486	1 21.1088242 11.275737 5
	487	1 25.1270073 3.27441704 5
	488	1 26.0072982 4.400842 5
	489	1 22.899254 9.70614642 5
	490	1 22.3907888 7.36845804 5
	491	1 21.9412892 8.64232353 5
	492	1 14.6485627 0.278975514 5
	493	1 8.75155867 2.58180064 5
	494	1 56.374594 20.9928376 5
	495	1 54.4793351 22.4966643 5
	496	1 54.9928472 21.1976368 5
	497	1 40.3414877 22.1796847 5
	498	1 42.5774002 23.0378248 5
	499	1 41.7183761 21.9843299 5
	500	1 37.0760716 17.8646168 5
	501	1 39.8238871 17.4085006 5
	502	1 37.8646471 16.4455373 5
	503	1 38.9987542 16.377296 5
	504	1 36.2142771 22.7888602 5
	505	1 37.597841 22.5589078 5
	506	1 47.8689404 16.1847638 5
	507	1 49.6246493 18.3245505 5
	508	1 50.1381614 17.0255231 5
	509	1 49.3039427 15.9741649 5
	510	1 5.2468847 79.1935131 5
	511	1 6.0437329 83.7105845 5
	512	1 6.26407479 82.8401657 5
	513	1 4.18348995 81.694002 5
	514	1 5.05416948 81.5484328 5
	515	1 20.8932568 62.8777061 5
	516	1 21.1996985 64.2369045 5
	517	1 16.6785189 65.3219733 5
	518	1 27.4037491 30.8737 5
	519	1 29.2685469 32.8105374 5
	520	1 27.0791734 32.3412748 5
	521	1 27.920366 33.1221737 5
	522	1 30.9549595 31.2274728 5
	523	1 29.6584988 31.5041747 5
	524	1 28.7798245 30.5786302 5
	525	1 31.3943264 29.8920179 5
	526	1 29.1614138 29.2113397 5
	527	1 30.4589137 28.9095083 5
	528	1 34.7807129 30.4382529 5
	529	1 33.5972396 30.6473941 5
	530	1 32.6485282 29.6309735 5
	531	1 35.3118156 29.06199 5
	532	1 34.3770252 28.035034 5
	533	1 33.1094853 28.28342 5
	534	1 29.9124925 26.5888942 5
	535	1 30.2608392 25.3311391 5
	536	1 30.8598284 27.5851276 5
	537	1 32.1801568 27.2832688 5
	538	1 32.5878718 25.9609508 5
	539	1 31.704882 24.9869648 5
	540	1 38.6060304 37.1571245 5
	541	1 36.8504294 38.6974697 5
	542	1 38.1028689 38.4895755 5
	543	1 32.4188644 37.0736655 5
	544	1 31.8913169 38.551303 5
	545	1 21.7850137 49.5179484 5
	546	1 21.6215426 48.4713992 5
	547	1 22.2802748 52.13007 5
	548	1 26.4135594 54.6370136 5
	549	1 30.7158797 52.1972626 5
	550	1 31.7604964 51.2242109 5
	551	1 11.9163411 58.9315063 5
	552	1 14.0898091 64.5083637 5
	553	1 14.4879295 54.8542013 5
	554	1 15.2232902 55.6035258 5
	555	1 14.7926381 53.4964389 5
	556	1 16.0326182 53.1108788 5
	557	1 16.7368711 55.382478 5
	558	1 17.2697275 54.2698623 5
	559	1 5.26959491 57.7648252 5
	560	1 6.60487691 57.3617311 5
	561	1 6.91775754 56.0123829 5
	562	1 5.95479074 55.1162418 5
	563	1 4.4929556 70.3274329 5
	564	1 9.56243843 65.558817 5
	565	1 19.2831368 88.8280156 5
	566	1 20.1952811 87.9868567 5
	567	1 12.7779399 94.4790919 5
	568	1 13.7176293 95.5690635 5
	569	1 15.4858766 94.1770388 5
	570	1 15.0472469 95.2953699 5
	571	1 97.7655925 93.6219598 5
	572	1 98.220962 92.3014275 5
	573	1 99.6026425 99.4269077 5
	574	1 99.768363 70.5427483 5
	575	1 93.7191868 65.1676169 5
	576	1 94.6933692 66.0797868 5
	577	1 94.0361894 63.8072212 5
	578	1 95.3728279 63.4015557 5
	579	1 96.0938632 65.6377107 5
	580	1 96.3924638 64.3562857 5
	581	1 99.6311175 55.7882461 5
	582	1 83.5282632 72.1340272 5
	583	1 92.0808808 66.8678689 5
	584	1 93.0676197 67.8333297 5
	585	1 92.8183896 69.0574322 5
	586	1 91.462874 69.5196533 5
	587	1 92.2529316 71.7071084 5
	588	1 91.2218952 70.7762268 5
	589	1 89.8729563 71.2675765 5
	590	1 89.66271 72.469185 5
	591	1 83.0243115 81.242035 5
	592	1 78.3916482 82.907926 5
	593	1 78.2694516 81.877923 5
	594	1 83.5661153 78.7363938 5
	595	1 82.3687959 80.0766876 5
	596	1 92.1157547 83.8739387 5
	597	1 91.7805279 85.0928747 5
	598	1 84.9105712 90.0501963 5
	599	1 98.6838996 74.3636082 5
	600	1 99.0369395 73.1004334 5
	601	1 93.8031117 69.9847869 5
	602	1 93.5494914 71.2520488 5
	603	1 90.6284595 80.6829902 5
	604	1 89.2512028 81.0804981 5
	605	1 91.7450698 75.67655 5
	606	1 91.994387 72.9675863 5
	607	1 90.5193342 74.6274393 5
	608	1 90.7699417 73.4515928 5
	609	1 93.8705111 77.4177575 5
	610	1 90.8642284 45.8071054 5
	611	1 89.7547697 44.8398997 5
	612	1 88.6839391 45.1979924 5
	613	1 84.1200142 54.2822903 5
	614	1 86.1280018 51.1523011 5
	615	1 85.783435 52.5892827 5
	616	1 84.4632638 52.9212432 5
	617	1 83.5499767 52.020642 5
	618	1 81.7842341 49.9761879 5
	619	1 80.8312673 48.9708421 5
	620	1 83.4607655 63.3464918 5
	621	1 83.0745283 64.8302464 5
	622	1 79.1388563 50.5201901 5
	623	1 82.5267915 71.187023 5
	624	1 81.5411395 71.3723736 5
	625	1 54.3298595 59.8348327 5
	626	1 85.0420026 61.5554747 5
	627	1 86.1731858 61.2365579 5
	628	1 87.507465 65.8779926 5
	629	1 87.8464067 64.4560142 5
	630	1 86.8465555 63.5769747 5
	631	1 85.6343424 63.9050456 5
	632	1 90.4748916 68.6064728 5
	633	1 90.7544882 67.3009605 5
	634	1 89.153852 69.0252496 5
	635	1 88.1746557 68.125505 5
	636	1 89.7548595 66.3816784 5
	637	1 88.4770374 66.7590397 5
	638	1 83.9971613 65.6884669 5
	639	1 85.2852598 65.3527125 5
	640	1 86.2389161 66.2227029 5
	641	1 85.8984661 67.6507474 5
	642	1 87.3682758 55.7598551 5
	643	1 88.6101206 55.3980145 5
	644	1 88.0120535 53.1147508 5
	645	1 88.9452382 53.9781213 5
	646	1 90.2543613 53.6372524 5
	647	1 90.5830143 52.213385 5
	648	1 89.5735344 51.344475 5
	649	1 88.343728 51.6944049 5
	650	1 89.9861313 60.0149734 5
	651	1 90.9772815 60.943031 5
	652	1 94.9185686 54.6901171 5
	653	1 95.9382046 55.6448472 5
	654	1 99.6997458 60.8241632 5
	655	1 98.6801099 59.8694331 5
	656	1 98.9971124 58.5090374 5
	657	1 95.033375 1.54515358 5
	658	1 98.6970939 5.76366466 5
	659	1 73.4423687 82.9206634 5
	660	1 78.2359021 87.9367263 5
	661	1 79.2969436 87.5448851 5
	662	1 77.6307626 85.3916261 5
	663	1 77.9228156 89.4494457 5
	664	1 80.4398498 88.609985 5
	665	1 85.4187081 92.3194082 5
	666	1 84.5378718 91.305188 5
	667	1 3.26117086 99.9497264 5
	668	1 6.00376947 99.4179173 5
	669	1 4.1722607 93.6118949 5
	670	1 5.06904457 94.7070493 5
	671	1 2.30700386 91.5844941 5
	672	1 3.59202959 87.858302 5
	673	1 3.133921 88.9938094 5
	674	1 3.58462839 82.9630087 5
	675	1 4.29580526 85.2090735 5
	676	1 4.63449576 84.1883235 5
	677	1 0.973941814 99.1610031 5
	678	1 12.5393203 88.3476688 5
	679	1 14.8783031 88.1275819 5
	680	1 13.8835876 87.6658893 5
	681	1 16.9374188 1.08828001 5
	682	1 16.4985111 2.3196701 5
	683	1 19.6791335 4.21710837 5
	684	1 17.4245502 3.41468354 5
	685	1 18.7737539 3.14816726 5
	686	1 7.85120069 12.61425 5
	687	1 6.47990138 12.8801545 5
	688	1 6.0334203 21.3951962 5
	689	1 5.57124537 22.7203995 5
	690	1 8.23303435 22.1383637 5
	691	1 7.37562433 21.1480801 5
	692	1 5.58491869 19.0915288 5
	693	1 2.90936403 19.5826359 5
	694	1 39.4070314 12.5688287 5
	695	1 38.806684 13.896461 5
	696	1 39.6682247 14.9748317 5
	697	1 40.8823537 14.8713707 5
	698	1 36.9626658 15.2814526 5
	699	1 37.5935694 14.0284503 5
	700	1 32.6795705 7.12159505 5
	701	1 28.4475944 11.2358781 5
	702	1 27.2408355 11.419014 5
	703	1 24.5605815 11.854512 5
	704	1 21.5693844 13.6508971 5
	705	1 22.84802 13.4029607 5
	706	1 23.8214375 14.466954 5
	707	1 24.9805046 21.7570466 5
	708	1 23.1471993 23.3168748 5
	709	1 24.4590371 23.1076878 5
	710	1 24.0249289 20.6549085 5
	711	1 22.7845294 20.861914 5
	712	1 22.2829865 21.9333778 5
	713	1 33.2937282 1.97542822 5
	714	1 31.959536 2.6618968 5
	715	1 29.9592525 7.4002965 5
	716	1 29.0126352 9.9498017 5
	717	1 32.5088978 4.58129847 5
	718	1 31.7271358 3.45958295 5
	719	1 31.8086152 5.95364431 5
	720	1 30.5452762 6.053601 5
	721	1 29.7431712 5.02374529 5
	722	1 30.1110569 3.86136645 5
	723	1 22.4773064 0.0780910349 5
	724	1 24.6338041 0.970500729 5
	725	1 23.3479533 1.14817562 5
	726	1 33.7765075 4.59030599 5
	727	1 34.597124 3.42565439 5
	728	1 36.9088833 1.83690638 5
	729	1 39.5442176 2.69242247 5
	730	1 37.9251908 0.818706419 5
	731	1 39.3317346 1.2927885 5
	732	1 45.185802 5.58490652 5
	733	1 44.6932259 4.33344659 5
	734	1 40.8148105 8.90552317 5
	735	1 39.8617966 7.60392882 5
	736	1 40.6011048 6.49826966 5
	737	1 40.9269962 3.10936717 5
	738	1 41.2288081 4.38144625 5
	739	1 41.9120605 2.15718998 5
	740	1 43.2179619 2.5511056 5
	741	1 43.5501834 4.01523566 5
	742	1 42.6366419 4.76764087 5
	743	1 70.5773174 17.5104462 5
	744	1 75.112887 7.99434038 5
	745	1 75.9886845 8.96684173 5
	746	1 57.057654 6.52945891 5
	747	1 56.2652194 5.62068578 5
	748	1 59.7614047 2.43887311 5
	749	1 57.7819465 0.598229782 5
	750	1 45.5932761 2.11678202 5
	751	1 45.8193424 3.1943521 5
	752	1 46.6027602 1.12622648 5
	753	1 47.8195014 1.43577767 5
	754	1 54.4469464 3.6065707 5
	755	1 54.1214349 5.01468764 5
	756	1 52.5081864 5.26721934 5
	757	1 51.819623 4.08428913 5
	758	1 60.6786239 16.6861567 5
	759	1 59.8103892 15.5919285 5
	760	1 62.4150934 18.8746132 5
	761	1 63.2833281 19.9688414 5
	762	1 59.1380877 20.5832391 5
	763	1 58.783365 18.1899834 5
	764	1 60.5198345 20.3784399 5
	765	1 58.2698529 19.4890109 5
	766	1 61.0333466 19.0794124 5
	767	1 60.1651118 17.9851842 5
	768	1 60.9772553 9.4296596 5
	769	1 58.7907061 8.63112669 5
	770	1 59.6247454 9.64137644 5
	771	1 62.2008134 12.8320843 5
	772	1 61.3523452 11.7396022 5
	773	1 61.6725216 14.0930117 5
	774	1 59.9593703 11.9517665 5
	775	1 59.4934833 13.246333 5
	776	1 60.3239012 14.292901 5
	777	1 53.903555 14.0814262 5
	778	1 55.359884 13.8754018 5
	779	1 52.1198245 6.245906 5
	780	1 52.962148 7.40267048 5
	781	1 52.5216309 8.55818284 5
	782	1 50.1492723 4.30845021 5
	783	1 47.3459697 3.8550301 5
	784	1 49.5300472 3.01512894 5
	785	1 48.287722 2.82587032 5
	786	1 42.2339954 8.58067476 5
	787	1 44.1088953 6.75143514 5
	788	1 42.8669712 6.56424967 5
	789	1 42.4619223 6.88018383 5
	790	1 41.229876 11.0937715 5
	791	1 40.6486931 12.4313301 5
	792	1 41.4980316 13.4792777 5
	793	1 53.87291 2.97994398 5
	794	1 51.601893 2.06573978 5
	795	1 52.1866737 3.21868978 5
	796	1 55.1991237 1.01496979 5
	797	1 54.043272 1.59857363 5
	798	1 52.6166371 0.210041454 5
	799	1 52.7127802 0.749504335 5
	800	1 86.0651782 16.6890733 5
	801	1 87.4000354 16.3615736 5
	802	1 87.7888555 15.245342 5
	803	1 85.102723 15.5250535 5
	804	1 85.6598131 17.8101663 5
	805	1 86.2055384 20.1105526 5
	806	1 86.622353 18.9372531 5
	807	1 81.8212348 6.57154592 5
	808	1 81.3495026 7.85846355 5
	809	1 78.9773676 20.3132626 5
	810	1 77.8317977 19.2107159 5
	811	1 93.2067061 3.13159041 5
	812	1 91.3748467 1.02233487 5
	813	1 93.6620757 1.81105811 5
	814	1 92.746146 0.756430336 5
	815	1 91.8354068 3.39749494 5
	816	1 90.9194771 2.34286717 5
	817	1 76.8852972 2.69980398 5
	818	1 65.8481711 9.79459643 5
	819	1 63.1555033 10.2669252 5
	820	1 63.6618187 8.95137843 5
	821	1 64.9278848 8.73487066 5
	822	1 60.1540151 0.948886212 5
	823	1 59.4912925 0.280567684 5
	824	1 88.6478198 12.6412211 5
	825	1 92.7617177 11.8435075 5
	826	1 91.8509786 14.4845721 5
	827	1 91.3904184 12.109412 5
	828	1 90.9350488 13.4299443 5
	829	1 94.3077602 18.671809 5
	830	1 92.9039516 18.9982192 5
	831	1 92.3583074 16.8179576 5
	832	1 92.0063662 17.9151212 5
	833	1 99.8598641 24.7214358 5
	834	1 97.4961873 20.5343397 5
	835	1 96.5916914 19.4179185 5
	836	1 94.8154768 20.8993209 5
	837	1 95.1983662 19.7358135 5
	838	1 91.7328498 36.792216 5
	839	1 89.4906182 36.2974106 5
	840	1 90.3712042 37.1376019 5
	841	1 94.0100502 37.2672399 5
	842	1 94.3049412 36.0017342 5
	843	1 96.965149 31.9327019 5
	844	1 79.5400898 33.5741097 5
	845	1 80.8254445 29.6780001 5
	846	1 80.3217147 30.9833723 5
	847	1 79.1116305 31.2064543 5
	848	1 78.1633655 30.1182672 5
	849	1 74.9121013 48.7059538 5
	850	1 77.5922036 48.2829212 5
	851	1 76.6603785 47.2178313 5
	852	1 75.4652044 47.3895697 5
	853	1 76.9192231 43.4611131 5
	854	1 76.3613022 44.8303364 5
	855	1 78.4201627 45.7025502 5
	856	1 77.23561 45.8503817 5
	857	1 80.7667997 40.6408421 5
	858	1 77.3789085 32.704115 5
	859	1 85.4638168 22.6992852 5
	860	1 88.4370804 40.2561035 5
	861	1 87.0698581 40.635587 5
	862	1 86.1244774 39.6746329 5
	863	1 88.7646055 38.9248549 5
	864	1 87.8026521 37.9959933 5
	865	1 86.5354591 38.2961985 5
	866	1 84.350535 37.5865017 5
	867	1 85.5788128 37.3286279 5
	868	1 1.7889881 31.0910465 5
	869	1 2.44343431 28.311951 5
	870	1 3.00713102 30.7091811 5
	871	1 3.41988451 29.3520992 5
	872	1 2.25871561 35.0210814 5
	873	1 12.2262406 44.3805473 5
	874	1 9.55296363 45.1918784 5
	875	1 2.80114286 42.1842893 5
	876	1 0.444868424 41.6352248 5
	877	1 1.78150691 41.2295592 5
	878	1 0.127865888 42.9956205 5
	879	1 4.45478388 40.418228 5
	880	1 5.79142237 40.0125624 5
	881	1 6.1084249 38.6521667 5
	882	1 18.7879562 45.7964537 5
	883	1 18.0547933 45.0986018 5
	884	1 16.6964979 45.3755623 5
	885	1 16.3290857 46.8877858 5
	886	1 17.4008073 47.7636875 5
	887	1 18.4454165 47.4454967 5
	888	1 15.2165201 42.2088204 5
	889	1 16.1760681 43.1072874 5
	890	1 13.8798816 42.614486 5
	891	1 13.5628791 43.9748817 5
	892	1 15.834534 44.5665521 5
	893	1 14.5220179 44.8729656 5
	894	1 13.8073395 37.608364 5
	895	1 11.7468394 35.8115915 5
	896	1 16.4372878 36.841157 5
	897	1 16.4601833 31.9340363 5
	898	1 15.7680893 29.7183829 5
	899	1 16.6581051 30.5195173 5
	900	1 11.6368947 30.963426 5
	901	1 14.2653301 30.3509668 5
	902	1 12.5988634 27.1295743 5
	903	1 11.342637 27.4279574 5
	904	1 10.9580191 28.7393746 5
	905	1 11.9554967 29.741371 5
	906	1 13.5806447 28.0942564 5
	907	1 13.2408218 29.3442986 5
	908	1 7.40411054 28.4024977 5
	909	1 8.70898406 28.0889284 5
	910	1 9.67261561 29.080359 5
	911	1 9.30865454 30.3578299 5
	912	1 5.71132503 30.052254 5
	913	1 5.33188463 31.3589293 5
	914	1 7.01638079 29.7115799 5
	915	1 8.00929497 30.7241592 5
	916	1 25.4238919 34.1027153 5
	917	1 25.7358077 32.6648714 5
	918	1 17.3566927 32.7285673 5
	919	1 17.0621216 34.1806699 5
	920	1 20.1397279 41.9382796 5
	921	1 21.4131944 41.5436121 5
	922	1 20.5765731 44.0728842 5
	923	1 19.8319131 43.2755383 5
	924	1 19.5027203 39.637461 5
	925	1 19.1572906 41.0077458 5
	926	1 17.1777484 39.1227686 5
	927	1 18.4482905 38.6957962 5
	928	1 16.8701611 40.4427591 5
	929	1 17.8502436 41.3604535 5
	930	1 22.3063436 37.5539977 5
	931	1 21.0739303 37.9423261 5
	932	1 20.0981749 28.2645714 5
	933	1 18.9726749 27.8660492 5
	934	1 22.6145152 27.9524216 5
	935	1 21.5288844 27.0120725 5
	936	1 21.495109 26.5914453 5
	937	1 23.9469951 27.5357118 5
	938	1 23.9963521 25.840365 5
	939	1 23.0441386 25.3681723 5
	940	1 12.2573782 24.8728718 5
	941	1 10.8330573 25.1095048 5
	942	1 10.0233239 24.1865524 5
	943	1 4.72371345 25.316494 5