C:\Users\XIA\Desktop\465\Project\Graphene_GB_Generator\Line0_Mis4\data_Line0_Mis4.lammps (written by ASE)

730	atoms
1	atom types
0.0	60	xlo xhi
0.0	31.9736579	ylo yhi
0.0	50	zlo zhi


Atoms

	1	1 48.89367 19.5465458 25
	2	1 51.42 20.8603622 25
	3	1 19.9536627 17.7926461 25
	4	1 20.1735893 6.44731951 25
	5	1 12.2238069 23.1014241 25
	6	1 12.2690167 21.711931 25
	7	1 24.9498582 19.3350784 25
	8	1 23.680503 20.0528107 25
	9	1 22.4222631 19.2319745 25
	10	1 19.7782816 21.9887003 25
	11	1 19.9003525 19.1364431 25
	12	1 21.0894295 21.273167 25
	13	1 21.1402621 19.94639 25
	14	1 17.3869488 19.0444816 25
	15	1 18.6156104 19.843762 25
	16	1 18.5660129 21.1888328 25
	17	1 17.2645754 21.8944376 25
	18	1 9.40348219 31.5475393 25
	19	1 33.8279339 21.4693927 25
	20	1 38.7872665 17.0895603 25
	21	1 40.0476894 17.7916236 25
	22	1 51.3653846 19.4414129 25
	23	1 50.0997868 18.7742582 25
	24	1 48.9434582 20.9389474 25
	25	1 50.2119606 21.6212297 25
	26	1 22.4759879 17.8957178 25
	27	1 21.2142201 17.0903649 25
	28	1 23.8227965 11.5686459 25
	29	1 21.2926653 12.8786959 25
	30	1 20.0087624 14.9390348 25
	31	1 20.065058 13.5599049 25
	32	1 21.268551 15.7320061 25
	33	1 18.9641822 7.09451403 25
	34	1 9.57325674 27.2875662 25
	35	1 9.45288012 30.1302226 25
	36	1 8.47076923 23.6982609 25
	37	1 9.73909338 23.029669 25
	38	1 8.41615385 25.1172102 25
	39	1 9.61910538 25.8748731 25
	40	1 10.8939954 25.1912988 25
	41	1 10.9340361 23.7901614 25
	42	1 7.32384615 21.5225386 25
	43	1 6.12230769 20.7657656 25
	44	1 6.01307692 23.6036642 25
	45	1 7.26923077 22.9414879 25
	46	1 13.551284 21.0207913 25
	47	1 14.7625946 21.802634 25
	48	1 16.0541056 21.1049577 25
	49	1 16.1037403 19.744229 25
	50	1 8.58 20.8603622 25
	51	1 9.78815922 21.6213052 25
	52	1 11.1065507 19.5467917 25
	53	1 11.0566407 20.938945 25
	54	1 25.0010875 17.9895744 25
	55	1 23.7259378 17.1900816 25
	56	1 30.0000899 28.8608022 25
	57	1 30.0002566 30.2531595 25
	58	1 20.9115313 24.123243 25
	59	1 19.7327955 23.3313454 25
	60	1 12.0875957 25.9476613 25
	61	1 42.6140694 19.0438895 25
	62	1 43.8971327 19.7434596 25
	63	1 43.9466948 21.1045612 25
	64	1 35.6132026 26.2898575 25
	65	1 34.0303991 25.6490162 25
	66	1 33.9781658 24.3421935 25
	67	1 33.7707668 20.1544626 25
	68	1 27.5031371 15.1889592 25
	69	1 26.2733366 15.8949888 25
	70	1 26.238241 17.2828814 25
	71	1 28.7599787 15.9326561 25
	72	1 23.4426237 24.2188116 25
	73	1 22.2629427 23.4048261 25
	74	1 22.310332 22.0893471 25
	75	1 23.6261486 21.3629246 25
	76	1 23.4012192 25.5589883 25
	77	1 28.8231678 28.1708605 25
	78	1 29.0864965 26.350036 25
	79	1 45.6394772 30.2789051 25
	80	1 46.8183776 29.5369944 25
	81	1 51.6930769 27.9551088 25
	82	1 50.4268156 27.2876043 25
	83	1 49.2383678 28.0376182 25
	84	1 45.68951 31.7258378 25
	85	1 21.5898995 0.0463480282 25
	86	1 27.5400502 2.44780737 25
	87	1 26.3512503 3.10573714 25
	88	1 28.7723567 7.41756718 25
	89	1 17.5154169 14.8373174 25
	90	1 16.2043146 16.8936961 25
	91	1 16.2607557 15.5225563 25
	92	1 17.4400726 17.6883377 25
	93	1 18.7064304 16.9915185 25
	94	1 18.7621821 15.6288273 25
	95	1 23.7781528 12.9695753 25
	96	1 23.7755596 15.8252136 25
	97	1 22.5567687 13.6567257 25
	98	1 22.5057624 15.0381006 25
	99	1 25.0439838 13.7352433 25
	100	1 25.0046807 15.1272882 25
	101	1 25.0366079 10.8843417 25
	102	1 21.4157442 7.1978066 25
	103	1 18.9028108 8.53083204 25
	104	1 10.7617633 28.0377294 25
	105	1 12.0465223 27.3596166 25
	106	1 11.9093431 30.202557 25
	107	1 10.7211532 29.4568929 25
	108	1 14.9356499 17.5843927 25
	109	1 14.882045 18.953455 25
	110	1 13.6013544 19.6460579 25
	111	1 12.3849389 18.8624047 25
	112	1 24.8705091 22.2033047 25
	113	1 24.8157154 23.4813732 25
	114	1 17.2187586 23.2556826 25
	115	1 18.4046282 24.0370316 25
	116	1 18.0838085 29.71052 25
	117	1 24.0533513 30.6128695 25
	118	1 5.95846154 25.0226136 25
	119	1 7.16 25.7793865 25
	120	1 4.70230769 25.6847899 25
	121	1 4.64769231 27.1037392 25
	122	1 37.5255995 17.8947822 25
	123	1 37.5793957 19.2312909 25
	124	1 36.2758029 17.1893724 25
	125	1 36.3211412 20.0520354 25
	126	1 35.0520221 19.3345036 25
	127	1 35.0006583 17.9888641 25
	128	1 41.385568 19.8428743 25
	129	1 40.1010115 19.1357576 25
	130	1 38.9120368 21.2725634 25
	131	1 38.8611812 19.9454969 25
	132	1 45.2842808 23.1776377 25
	133	1 45.2380745 21.8020929 25
	134	1 46.4491523 21.0205897 25
	135	1 46.5799277 23.8694048 25
	136	1 47.7313673 21.7116211 25
	137	1 47.7764804 23.1013557 25
	138	1 31.3080044 24.5196743 25
	139	1 31.2736997 21.5986255 25
	140	1 32.5388656 22.3280467 25
	141	1 32.6068084 23.580769 25
	142	1 33.2319785 26.3232624 25
	143	1 31.1773691 28.1705056 25
	144	1 30.9137235 26.3505187 25
	145	1 31.4017559 25.8292464 25
	146	1 36.6001372 25.5583924 25
	147	1 39.0896164 24.1225604 25
	148	1 32.523575 19.4393269 25
	149	1 31.2511736 20.2071574 25
	150	1 32.4768997 13.7862555 25
	151	1 31.2458384 13.0761215 25
	152	1 30.0009295 15.2110171 25
	153	1 30.0008152 13.8044787 25
	154	1 33.7284024 15.8943967 25
	155	1 33.7636767 17.2823947 25
	156	1 32.498679 15.188597 25
	157	1 32.4927083 18.0512341 25
	158	1 31.2547867 17.3362041 25
	159	1 31.2418189 15.9324494 25
	160	1 30.0000744 1.0789579 25
	161	1 31.2182141 3.17773314 25
	162	1 30.0001954 2.47576008 25
	163	1 28.7820245 3.17794586 25
	164	1 28.7656741 4.58311463 25
	165	1 27.509125 18.0516188 25
	166	1 28.7472227 17.3363788 25
	167	1 30.0009298 18.0737108 25
	168	1 30.0010321 19.4781245 25
	169	1 20.8710623 25.4864832 25
	170	1 21.9540553 26.2364763 25
	171	1 27.7288803 28.6004841 25
	172	1 25.284282 30.0292196 25
	173	1 24.3875671 26.2902937 25
	174	1 26.6861866 27.9231211 25
	175	1 24.336886 27.7846798 25
	176	1 25.3653732 28.4707707 25
	177	1 42.9695197 26.098821 25
	178	1 41.6383625 25.413816 25
	179	1 44.0910451 23.9524127 25
	180	1 44.1345486 25.3389471 25
	181	1 43.0128097 27.5156781 25
	182	1 44.3632449 29.6217684 25
	183	1 44.3165318 28.1824446 25
	184	1 55.5161538 31.3605872 25
	185	1 50.2609863 23.029711 25
	186	1 50.3809892 25.8748136 25
	187	1 49.0661353 23.790001 25
	188	1 49.106109 25.1913267 25
	189	1 48.0908844 30.2023761 25
	190	1 49.2789061 29.4568739 25
	191	1 48.1378756 31.6361355 25
	192	1 59.94 18.4008501 25
	193	1 52.5669231 18.6846399 25
	194	1 57.4276923 17.0764974 25
	195	1 22.7724211 0.766891392 25
	196	1 22.7049813 2.25971818 25
	197	1 25.1084601 2.36900314 25
	198	1 23.9282462 2.99176403 25
	199	1 26.3049591 4.53905273 25
	200	1 27.5279072 6.68752741 25
	201	1 27.5534419 5.27534865 25
	202	1 47.9127042 25.9474716 25
	203	1 46.7735669 28.1081044 25
	204	1 47.9536987 27.3595407 25
	205	1 45.4834172 27.4360096 25
	206	1 45.4398869 26.0229175 25
	207	1 46.6230423 25.263178 25
	208	1 0.06 18.4008501 25
	209	1 0.114615385 16.9819008 25
	210	1 21.5029433 2.88416502 25
	211	1 20.2355075 4.99324225 25
	212	1 21.439211 4.35630787 25
	213	1 19.0119191 4.25115409 25
	214	1 26.2661689 13.038767 25
	215	1 26.2956498 11.634754 25
	216	1 27.5247038 13.7866782 25
	217	1 28.7557529 13.0763175 25
	218	1 22.614719 6.54769109 25
	219	1 22.674161 5.09724877 25
	220	1 23.8644505 4.45821206 25
	221	1 25.1116838 5.19956534 25
	222	1 22.6123047 9.39065601 25
	223	1 21.3471015 11.4798899 25
	224	1 22.5609609 10.8060324 25
	225	1 20.090333 10.7100691 25
	226	1 21.3575127 8.63288367 25
	227	1 20.1489279 9.2920866 25
	228	1 16.3312995 12.6728346 25
	229	1 17.5738087 13.4546277 25
	230	1 18.81049 12.777663 25
	231	1 18.8695293 11.3780864 25
	232	1 17.6841534 9.18736499 25
	233	1 17.6228542 10.6056914 25
	234	1 16.3922127 11.2710255 25
	235	1 4.86615385 21.427942 25
	236	1 4.81153846 22.8468913 25
	237	1 0.879230769 29.0902683 25
	238	1 3.39153846 27.7659156 25
	239	1 0.933846154 27.6713189 25
	240	1 2.19 27.0091426 25
	241	1 30.0009011 23.750862 25
	242	1 30.0008077 22.3609973 25
	243	1 33.3143957 27.9224166 25
	244	1 32.2713185 28.599999 25
	245	1 31.1914657 30.923847 25
	246	1 32.4168136 30.1938733 25
	247	1 33.5561448 30.736343 25
	248	1 14.716302 23.1778752 25
	249	1 15.9096645 23.9529276 25
	250	1 13.4205241 23.8697463 25
	251	1 13.377325 25.2633045 25
	252	1 13.1818312 29.5372156 25
	253	1 13.2267414 28.1083519 25
	254	1 22.9203443 29.9066812 25
	255	1 20.565889 28.3249281 25
	256	1 22.9795959 28.3924208 25
	257	1 21.9112119 27.6835176 25
	258	1 19.2342595 30.4371422 25
	259	1 20.5152153 29.8036588 25
	260	1 21.6515182 30.5192161 25
	261	1 19.1787981 31.9167682 25
	262	1 28.8086765 30.9241194 25
	263	1 27.5836334 30.1943292 25
	264	1 26.4439919 30.7369604 25
	265	1 14.3106725 31.7262701 25
	266	1 14.3608257 30.2792587 25
	267	1 16.8031235 30.3580022 25
	268	1 15.6370804 29.6221956 25
	269	1 6.94153846 31.4551838 25
	270	1 37.6911058 22.0885862 25
	271	1 37.7385204 23.4042738 25
	272	1 36.5587066 24.2181581 25
	273	1 36.375569 21.3623352 25
	274	1 35.1310871 22.2026718 25
	275	1 35.1859467 23.4808465 25
	276	1 45.1186049 18.9530403 25
	277	1 45.0651023 17.5835982 25
	278	1 46.399194 19.645507 25
	279	1 47.6153502 18.8622339 25
	280	1 43.7965075 16.8930509 25
	281	1 42.5609924 17.6873652 25
	282	1 41.2947427 16.9907378 25
	283	1 36.2260566 15.8243171 25
	284	1 34.99701 15.1266246 25
	285	1 31.2287089 0.360879996 25
	286	1 27.4784411 19.4396492 25
	287	1 26.2309787 20.1549812 25
	288	1 26.173954 21.4698735 25
	289	1 27.4627546 22.3283793 25
	290	1 28.7506118 20.2073437 25
	291	1 28.7282733 21.5987884 25
	292	1 18.3625342 25.4142607 25
	293	1 19.4973947 26.1714328 25
	294	1 19.455115 27.5974759 25
	295	1 18.1316882 28.2557917 25
	296	1 42.7363796 21.8937335 25
	297	1 42.782141 23.2552846 25
	298	1 41.596314 24.0363963 25
	299	1 41.4351392 21.188296 25
	300	1 40.2684057 23.330836 25
	301	1 40.2229353 21.9879194 25
	302	1 38.0895905 27.6828498 25
	303	1 38.0467609 26.2359178 25
	304	1 39.1300773 25.4859401 25
	305	1 40.5033708 26.1708637 25
	306	1 38.3487538 30.5185206 25
	307	1 43.1972079 30.3574881 25
	308	1 43.2494526 31.8189156 25
	309	1 39.4852267 29.8029311 25
	310	1 40.7660588 30.4365092 25
	311	1 41.9165977 29.709916 25
	312	1 41.8687966 28.2552716 25
	313	1 40.5456053 27.5969063 25
	314	1 39.4346021 28.3243458 25
	315	1 59.23 31.9281669 25
	316	1 57.9738462 31.2659905 25
	317	1 50.5965594 31.5475612 25
	318	1 50.5472038 30.1301698 25
	319	1 53.0584615 31.4551838 25
	320	1 53.0038462 30.0362345 25
	321	1 51.7476923 29.3740581 25
	322	1 52.6761538 21.5225386 25
	323	1 58.7384615 19.1576231 25
	324	1 57.4823077 18.4954467 25
	325	1 54.97 17.171094 25
	326	1 56.1715385 16.414321 25
	327	1 23.8172854 8.72223316 25
	328	1 26.317741 7.37435933 25
	329	1 23.8660093 7.2959605 25
	330	1 25.0645866 6.63180936 25
	331	1 26.2855783 8.7888192 25
	332	1 25.0748835 9.47319426 25
	333	1 20.2941837 2.15236649 25
	334	1 19.0735934 2.78373711 25
	335	1 17.8722631 2.04878398 25
	336	1 20.3560059 0.668372618 25
	337	1 28.7660086 11.6699724 25
	338	1 28.7612463 8.82428293 25
	339	1 27.537551 9.52808617 25
	340	1 27.5171729 10.9357901 25
	341	1 1.37076923 16.3197244 25
	342	1 1.20692308 20.5765724 25
	343	1 1.26153846 19.1576231 25
	344	1 2.40846154 21.3333453 25
	345	1 3.66461538 20.671169 25
	346	1 3.50076923 24.9280169 25
	347	1 2.24461538 25.5901933 25
	348	1 3.55538462 23.5090676 25
	349	1 2.35384615 22.7522946 25
	350	1 0.77 31.9281669 25
	351	1 28.5998405 25.8301238 25
	352	1 28.6934272 24.5198056 25
	353	1 27.3949695 23.5812057 25
	354	1 26.0233206 24.3427348 25
	355	1 25.9711315 25.6496806 25
	356	1 26.7686135 26.3234316 25
	357	1 35.6638872 27.7839614 25
	358	1 34.6349745 28.4702207 25
	359	1 37.0208454 28.3918382 25
	360	1 34.7160898 30.0284877 25
	361	1 35.9468569 30.6121715 25
	362	1 37.08008 29.9059022 25
	363	1 16.7507748 31.8195571 25
	364	1 11.862236 31.6363278 25
	365	1 2.02615385 31.2659905 25
	366	1 2.08076923 29.8470412 25
	367	1 3.33692308 29.1848649 25
	368	1 4.53846154 29.9416378 25
	369	1 4.48384615 31.3605872 25
	370	1 7.10538462 27.1983358 25
	371	1 8.30692308 27.9551088 25
	372	1 8.25230769 29.3740581 25
	373	1 5.84923077 27.8605122 25
	374	1 6.99615385 30.0362345 25
	375	1 5.79461538 29.2794615 25
	376	1 43.7401454 15.5215513 25
	377	1 47.5599026 17.4785854 25
	378	1 46.2930311 16.7951191 25
	379	1 38.7085097 12.8776995 25
	380	1 38.7328784 15.7309263 25
	381	1 37.4957293 15.03724 25
	382	1 37.4446182 13.6556741 25
	383	1 41.2390026 15.6277117 25
	384	1 39.9924709 14.9381087 25
	385	1 39.9361463 13.5587318 25
	386	1 41.1904487 12.7766511 25
	387	1 42.4271758 13.4534895 25
	388	1 42.4855192 14.8364575 25
	389	1 33.7353474 13.0382086 25
	390	1 34.9575382 13.7344536 25
	391	1 36.2232204 12.968737 25
	392	1 31.2397086 8.82407396 25
	393	1 31.2353483 11.6697533 25
	394	1 30.0006428 10.9536291 25
	395	1 30.0005209 9.54716184 25
	396	1 31.2347998 4.58290781 25
	397	1 31.2283578 7.4173514 25
	398	1 30.0003396 6.70684064 25
	399	1 30.0002187 5.3028166 25
	400	1 32.4152787 1.01972967 25
	401	1 32.4603098 2.44740737 25
	402	1 39.6442222 0.667584998 25
	403	1 27.5848558 1.0201664 25
	404	1 28.7716939 0.361087064 25
	405	1 16.9877661 27.5161036 25
	406	1 14.5606022 26.0232685 25
	407	1 15.8660864 25.3392445 25
	408	1 17.0311298 26.0993118 25
	409	1 14.5169841 27.43626 25
	410	1 15.6838915 28.1828439 25
	411	1 40.8214481 31.9159769 25
	412	1 51.5292308 23.6982609 25
	413	1 51.5838462 25.1172102 25
	414	1 52.7307692 22.9414879 25
	415	1 57.5915385 21.3333453 25
	416	1 58.7930769 20.5765724 25
	417	1 53.8776923 20.7657656 25
	418	1 53.8230769 19.3468163 25
	419	1 55.0246154 18.5900433 25
	420	1 55.1338462 21.427942 25
	421	1 56.2807692 19.2522197 25
	422	1 56.3353846 20.671169 25
	423	1 59.8853846 16.9819008 25
	424	1 58.6292308 16.3197244 25
	425	1 58.5746154 14.9007751 25
	426	1 59.7761538 14.1440021 25
	427	1 59.7215385 12.7250528 25
	428	1 57.3184615 14.2385988 25
	429	1 56.1169231 14.9953717 25
	430	1 15.1560378 10.4980304 25
	431	1 2.57230769 17.0764974 25
	432	1 2.51769231 18.4954467 25
	433	1 3.71923077 19.2522197 25
	434	1 1.04307692 24.8334203 25
	435	1 1.09769231 23.414471 25
	436	1 44.9743488 14.7341593 25
	437	1 46.2352958 15.4142573 25
	438	1 55.68 3.6437772 25
	439	1 50.0442386 17.3668229 25
	440	1 48.7867479 16.6935081 25
	441	1 37.2952314 2.25880533 25
	442	1 32.4634743 9.52765584 25
	443	1 33.7056627 11.6341259 25
	444	1 32.4840803 10.9353886 25
	445	1 32.4469877 5.27493312 25
	446	1 32.4727477 6.68711651 25
	447	1 43.4216595 4.14559613 25
	448	1 55.6253846 2.22482789 25
	449	1 23.979881 0.159198471 25
	450	1 25.1824862 0.881392755 25
	451	1 26.3478123 0.286297229 25
	452	1 59.1207692 29.0902683 25
	453	1 57.9192308 29.8470412 25
	454	1 59.0661538 27.6713189 25
	455	1 17.930286 0.577815557 25
	456	1 13.7074223 16.7955271 25
	457	1 12.4405451 17.4790828 25
	458	1 11.3791625 12.4554716 25
	459	1 13.9169338 11.1613992 25
	460	1 16.4483085 8.42414459 25
	461	1 15.2185582 9.08056063 25
	462	1 11.2133193 16.6935733 25
	463	1 11.2761671 15.3037934 25
	464	1 3.82846154 16.414321 25
	465	1 46.0836554 11.1605756 25
	466	1 46.1461625 12.5654263 25
	467	1 43.6693832 12.6719494 25
	468	1 44.9147991 13.3451846 25
	469	1 43.4900817 6.9894254 25
	470	1 46.008518 8.3146554 25
	471	1 42.2065369 4.89032838 25
	472	1 42.2682197 6.34093178 25
	473	1 47.1635564 6.12720847 25
	474	1 44.6524151 4.79061915 25
	475	1 44.7132859 6.23449585 25
	476	1 45.9462063 6.8856946 25
	477	1 54.8607692 14.3331954 25
	478	1 48.7241173 15.3033912 25
	479	1 47.3972475 13.2341321 25
	480	1 47.4593462 14.6300378 25
	481	1 38.6540024 11.4787417 25
	482	1 34.8918203 2.36827413 25
	483	1 36.0719835 2.99092636 25
	484	1 36.1358951 4.45733927 25
	485	1 33.6489762 3.10514187 25
	486	1 33.6954664 4.53846492 25
	487	1 34.8887296 5.19880631 25
	488	1 38.4973121 2.88325103 25
	489	1 39.706005 2.15142752 25
	490	1 40.92669 2.78286531 25
	491	1 40.9883076 4.25015187 25
	492	1 36.1346487 7.29504143 25
	493	1 34.936 6.63104878 25
	494	1 33.7153229 8.78822208 25
	495	1 33.6829522 7.37374434 25
	496	1 37.227759 0.766083559 25
	497	1 38.4103454 0.0454910187 25
	498	1 59.4484615 5.63030624 25
	499	1 56.9361538 4.30595355 25
	500	1 59.3938462 4.21135693 25
	501	1 58.1376923 3.54918058 25
	502	1 57.81 27.0091426 25
	503	1 59.5576923 8.46820487 25
	504	1 59.6123077 9.88715419 25
	505	1 13.7653003 15.4150192 25
	506	1 15.0262741 14.7348302 25
	507	1 15.0859449 13.3461378 25
	508	1 13.8542603 12.5660566 25
	509	1 12.5409693 14.6304097 25
	510	1 12.603254 13.234769 25
	511	1 11.444101 11.0489717 25
	512	1 12.6883188 10.3874206 25
	513	1 17.7320927 6.34195008 25
	514	1 16.5104275 6.99039499 25
	515	1 17.7938551 4.89126858 25
	516	1 0.715384615 1.3734583 25
	517	1 0.606153846 4.21135693 25
	518	1 0.551538462 5.63030624 25
	519	1 5.52153846 4.40055017 25
	520	1 15.495116 0.490838493 25
	521	1 3.22769231 0.0491056023 25
	522	1 8.97109189 10.9332496 25
	523	1 10.2183911 10.2726891 25
	524	1 10.285012 8.8610177 25
	525	1 7.76076923 10.1709441 25
	526	1 10.124081 13.120315 25
	527	1 10.0604681 14.5193034 25
	528	1 7.65153846 13.0088427 25
	529	1 8.91053079 12.34517 25
	530	1 6.34076923 15.0899683 25
	531	1 8.79846154 15.184565 25
	532	1 7.59692308 14.427792 25
	533	1 44.8444025 10.4971998 25
	534	1 44.7820205 9.07962272 25
	535	1 43.5520926 8.4231793 25
	536	1 43.6085647 11.2699492 25
	537	1 49.5585269 4.5940248 25
	538	1 50.7643137 3.83281144 25
	539	1 49.401707 0.32518723 25
	540	1 49.4528408 1.75266296 25
	541	1 50.708548 2.41493563 25
	542	1 54.4784615 4.40055017 25
	543	1 54.5330769 5.81949949 25
	544	1 52.0207692 4.49514679 25
	545	1 53.2223077 3.73837382 25
	546	1 49.6204253 6.01654731 25
	547	1 48.4044531 6.7810324 25
	548	1 54.6423077 8.65739812 25
	549	1 52.2392308 10.1709441 25
	550	1 41.0363881 7.0934225 25
	551	1 38.643163 8.63181071 25
	552	1 37.3262427 5.0962851 25
	553	1 39.826809 6.44623745 25
	554	1 38.5610631 4.35529507 25
	555	1 39.7648935 4.99222743 25
	556	1 37.3857733 6.54669557 25
	557	1 38.5848731 7.19672578 25
	558	1 53.7138462 16.5089177 25
	559	1 52.5123077 17.2656906 25
	560	1 51.2561538 16.6035143 25
	561	1 53.6592308 15.0899683 25
	562	1 49.939589 14.5193335 25
	563	1 52.3484615 13.0088427 25
	564	1 52.4030769 14.427792 25
	565	1 51.2015385 15.184565 25
	566	1 34.9260947 9.47239395 25
	567	1 36.1784299 11.5676932 25
	568	1 34.964552 10.8835958 25
	569	1 37.4400558 10.8050483 25
	570	1 37.3886019 9.38959948 25
	571	1 36.1835169 8.72133347 25
	572	1 36.0203639 0.158387663 25
	573	1 34.8176498 0.880671737 25
	574	1 33.6525074 0.285711891 25
	575	1 58.9023077 23.414471 25
	576	1 58.9569231 24.8334203 25
	577	1 57.6461538 22.7522946 25
	578	1 57.7553846 25.5901933 25
	579	1 54.2053846 29.2794615 25
	580	1 55.4615385 29.9416378 25
	581	1 56.6630769 29.1848649 25
	582	1 56.6084615 27.7659156 25
	583	1 58.2469231 6.38707921 25
	584	1 55.7892308 6.48167583 25
	585	1 55.8438462 7.90062515 25
	586	1 56.9907692 5.72490286 25
	587	1 57.1 8.56280149 25
	588	1 58.3015385 7.80602853 25
	589	1 58.4653846 12.0628765 25
	590	1 57.2638462 12.8196494 25
	591	1 58.4107692 10.6439272 25
	592	1 57.1546154 9.98175081 25
	593	1 6.45 12.2520697 25
	594	1 6.50461538 10.8331204 25
	595	1 1.42538462 14.9007751 25
	596	1 0.223846154 14.1440021 25
	597	1 0.278461538 12.7250528 25
	598	1 1.53461538 12.0628765 25
	599	1 3.00923077 5.72490286 25
	600	1 1.75307692 6.38707921 25
	601	1 6.77769231 3.73837382 25
	602	1 13.0511661 0.406202354 25
	603	1 10.5984286 0.325324785 25
	604	1 16.5785259 4.14646159 25
	605	1 16.6381534 2.68791993 25
	606	1 15.4396621 1.94841374 25
	607	1 4.32 3.6437772 25
	608	1 3.06384615 4.30595355 25
	609	1 1.86230769 3.54918058 25
	610	1 1.91692308 2.13023126 25
	611	1 3.17307692 1.46805492 25
	612	1 4.37461538 2.22482789 25
	613	1 7.81538462 8.75199474 25
	614	1 9.07177193 8.08969532 25
	615	1 4.97538462 18.5900433 25
	616	1 6.17692308 19.3468163 25
	617	1 5.03 17.171094 25
	618	1 6.28615385 16.5089177 25
	619	1 48.3095756 3.93868474 25
	620	1 47.102878 4.69233241 25
	621	1 45.8619973 4.04220728 25
	622	1 48.2524971 2.50369339 25
	623	1 45.8041136 2.59437375 25
	624	1 47.0022245 1.84990112 25
	625	1 42.0699792 0.577127234 25
	626	1 44.5604851 1.94775639 25
	627	1 42.1279104 2.04793888 25
	628	1 43.3621456 2.68718172 25
	629	1 46.9490736 0.405869368 25
	630	1 53.1676923 2.31942451 25
	631	1 54.3692308 1.56265154 25
	632	1 54.3146154 0.143702223 25
	633	1 51.9115385 1.65724816 25
	634	1 51.8569231 0.238298844 25
	635	1 53.3315385 6.57627245 25
	636	1 52.0753846 5.91409611 25
	637	1 52.1846154 8.75199474 25
	638	1 53.3861538 7.99522177 25
	639	1 50.8681256 6.67447208 25
	640	1 50.9282469 8.08970525 25
	641	1 39.8518885 9.2909218 25
	642	1 41.1314226 11.3768965 25
	643	1 39.9105073 10.7089862 25
	644	1 42.3777915 10.6046622 25
	645	1 42.3165547 9.18624491 25
	646	1 41.097729 8.52973786 25
	647	1 51.0290457 10.9331629 25
	648	1 51.0895063 12.3451896 25
	649	1 48.6210187 12.4552007 25
	650	1 49.8761402 13.1200465 25
	651	1 55.1884615 22.8468913 25
	652	1 53.9869231 23.6036642 25
	653	1 56.4992308 24.9280169 25
	654	1 56.4446154 23.5090676 25
	655	1 53.4953846 10.8331204 25
	656	1 53.55 12.2520697 25
	657	1 54.8061538 12.9142461 25
	658	1 54.6969231 10.0763474 25
	659	1 55.9530769 10.7385238 25
	660	1 56.0076923 12.1574731 25
	661	1 5.19384615 12.9142461 25
	662	1 3.88307692 14.9953717 25
	663	1 5.13923077 14.3331954 25
	664	1 3.99230769 12.1574731 25
	665	1 2.73615385 12.8196494 25
	666	1 2.68153846 14.2385988 25
	667	1 11.5958624 6.78145426 25
	668	1 11.531753 8.20386896 25
	669	1 13.9917387 8.31536124 25
	670	1 12.7522768 8.97244389 25
	671	1 4.04692308 10.7385238 25
	672	1 5.30307692 10.0763474 25
	673	1 5.63076923 1.56265154 25
	674	1 8.14307692 0.238298844 25
	675	1 5.68538462 0.143702223 25
	676	1 8.08846154 1.65724816 25
	677	1 6.83230769 2.31942451 25
	678	1 9.29155271 2.41499908 25
	679	1 10.5471586 1.75276003 25
	680	1 15.3479475 4.79138439 25
	681	1 12.8365597 6.1277314 25
	682	1 15.2869373 6.23531893 25
	683	1 14.0542177 6.886434 25
	684	1 12.9978702 1.85030107 25
	685	1 14.196175 2.59491021 25
	686	1 11.747744 2.50398492 25
	687	1 11.6904891 3.93899945 25
	688	1 12.8974211 4.69284662 25
	689	1 14.1381378 4.04283552 25
	690	1 10.3795517 6.01668796 25
	691	1 9.13200213 6.67455254 25
	692	1 10.4416528 4.59423979 25
	693	1 7.92461538 5.91409611 25
	694	1 7.97923077 4.49514679 25
	695	1 9.23570445 3.83280184 25
	696	1 8.74384615 16.6035143 25
	697	1 8.63461538 19.4414129 25
	698	1 7.48769231 17.2656906 25
	699	1 7.43307692 18.6846399 25
	700	1 9.90027908 18.7742235 25
	701	1 9.95590919 17.366916 25
	702	1 44.5051585 0.490309723 25
	703	1 47.3119076 10.3869132 25
	704	1 48.5562807 11.0484986 25
	705	1 47.2481406 8.97179593 25
	706	1 48.4683505 8.20351597 25
	707	1 49.7152087 8.86074172 25
	708	1 49.7816103 10.2725689 25
	709	1 56.8269231 1.46805492 25
	710	1 58.0830769 2.13023126 25
	711	1 59.2846154 1.3734583 25
	712	1 56.7723077 0.0491056023 25
	713	1 54.1507692 27.8605122 25
	714	1 52.8946154 27.1983358 25
	715	1 52.84 25.7793865 25
	716	1 55.3523077 27.1037392 25
	717	1 55.2976923 25.6847899 25
	718	1 54.0415385 25.0226136 25
	719	1 1.58923077 10.6439272 25
	720	1 0.387692308 9.88715419 25
	721	1 0.442307692 8.46820487 25
	722	1 1.69846154 7.80602853 25
	723	1 2.9 8.56280149 25
	724	1 2.84538462 9.98175081 25
	725	1 6.61384615 7.99522177 25
	726	1 4.21076923 6.48167583 25
	727	1 5.46692308 5.81949949 25
	728	1 6.66846154 6.57627245 25
	729	1 5.35769231 8.65739812 25
	730	1 4.15615385 7.90062515 25
