C:\Users\XIA\Desktop\465\Project\Graphene_GB_Generator\Line0_Mis30\data_Line0_Mis30.lammps (written by ASE)

202	atoms
1	atom types
0.0	60	xlo xhi
0.0	8.86789716	ylo yhi
0.0	50	zlo zhi


Atoms

	1	1 30.0345552 1.9037636 25
	2	1 29.6672776 0.0384499857 25
	3	1 28.0318628 0.0436551392 25
	4	1 10.2100547 8.2012641 25
	5	1 48.3815461 7.83132823 25
	6	1 58.6644171 7.84467825 25
	7	1 56.6952314 1.0232189 25
	8	1 47.4073739 8.84866395 25
	9	1 45.3947244 2.00925832 25
	10	1 44.419529 3.02808407 25
	11	1 43.0024946 2.67267182 25
	12	1 42.6244419 1.30876149 25
	13	1 28.7382063 2.64778347 25
	14	1 27.4665172 1.56190116 25
	15	1 21.5706883 0.445518285 25
	16	1 23.5670682 2.49256947 25
	17	1 26.3769889 1.85021663 25
	18	1 9.22520542 7.15934542 25
	19	1 9.61633163 5.80880815 25
	20	1 14.0014013 8.55290445 25
	21	1 11.6108982 7.85293479 25
	22	1 19.7750299 2.13718025 25
	23	1 21.1794966 1.78722428 25
	24	1 22.1649131 2.83386014 25
	25	1 59.6490099 6.82145935 25
	26	1 53.1506971 6.48038638 25
	27	1 39.416195 8.10210369 25
	28	1 45.9915108 8.49541615 25
	29	1 42.0265312 3.69135531 25
	30	1 40.6110598 3.33636652 25
	31	1 4.28936148 2.04643781 25
	32	1 3.30476863 1.0232189 25
	33	1 1.92633864 1.36429187 25
	34	1 0.941745796 0.341072968 25
	35	1 27.3427806 7.97961295 25
	36	1 24.855453 7.26092615 25
	37	1 25.7178138 8.25895061 25
	38	1 22.9654513 0.0924806879 25
	39	1 25.3087432 0.799021387 25
	40	1 23.9689914 1.13615683 25
	41	1 24.1338386 4.89051859 25
	42	1 24.5451978 3.53718165 25
	43	1 25.9384903 3.21459888 25
	44	1 25.2106704 5.98835439 25
	45	1 11.0037289 5.45365892 25
	46	1 11.3949843 4.11846307 25
	47	1 12.8036948 3.7666814 25
	48	1 12.0048679 6.50942779 25
	49	1 9.81784183 0.678493683 25
	50	1 10.409915 3.06567848 25
	51	1 10.8022963 1.72625022 25
	52	1 14.3949745 7.21063872 25
	53	1 13.7925756 4.81899606 25
	54	1 13.4002442 6.15756133 25
	55	1 16.3930973 0.385562894 25
	56	1 17.3837909 1.43651286 25
	57	1 18.7851323 1.08668868 25
	58	1 15.7941124 6.8599105 25
	59	1 13.1955152 2.42742854 25
	60	1 12.2072459 1.37742352 25
	61	1 12.6007688 0.0341512176 25
	62	1 14.5988551 2.07705849 25
	63	1 14.991852 0.735393912 25
	64	1 52.1661043 7.50360529 25
	65	1 49.7955542 8.18306626 25
	66	1 50.7718582 7.15861885 25
	67	1 55.51372 5.79824045 25
	68	1 56.8921499 6.13931342 25
	69	1 54.5291271 6.82145935 25
	70	1 57.2859871 7.50360529 25
	71	1 56.3013942 8.52682419 25
	72	1 54.9229642 8.18575122 25
	73	1 52.75686 5.11609451 25
	74	1 50.1791402 0.677746931 25
	75	1 40.8270934 8.45955104 25
	76	1 45.6120152 7.12999287 25
	77	1 44.7975923 4.39102169 25
	78	1 30.072122 7.09612622 25
	79	1 31.0792044 2.28373674 25
	80	1 33.944145 2.93228561 25
	81	1 32.2699718 1.20808398 25
	82	1 33.6009018 1.63222663 25
	83	1 33.4899441 5.32607494 25
	84	1 32.4321774 6.34632595 25
	85	1 31.3331718 6.04947034 25
	86	1 33.0987297 3.89337287 25
	87	1 30.7835062 4.49132889 25
	88	1 31.4523119 3.61010095 25
	89	1 3.69860577 8.52682419 25
	90	1 2.71401292 7.50360529 25
	91	1 0.744827226 5.45716748 25
	92	1 1.5325015 2.72858374 25
	93	1 34.6643164 0.568389873 25
	94	1 36.0248953 0.9331144 25
	95	1 26.8735199 4.2513858 25
	96	1 26.5334016 5.56792728 25
	97	1 28.5729467 3.8302416 25
	98	1 29.1671961 4.49295932 25
	99	1 28.7515485 6.31931955 25
	100	1 27.7391102 6.6781274 25
	101	1 6.06162861 0.341072968 25
	102	1 5.66779147 1.70536484 25
	103	1 8.42465144 1.0232189 25
	104	1 7.44005859 8.86789716 25
	105	1 5.07703576 8.18575122 25
	106	1 7.83389573 7.50360529 25
	107	1 6.84930289 6.48038638 25
	108	1 5.4708729 6.82145935 25
	109	1 19.3820087 3.47870355 25
	110	1 16.9906183 2.77770876 25
	111	1 17.9844064 3.83098162 25
	112	1 17.5924012 5.16909306 25
	113	1 16.186751 5.51980498 25
	114	1 15.5897305 3.12869095 25
	115	1 15.1974642 4.46790979 25
	116	1 16.7864367 7.91168961 25
	117	1 57.4829056 3.75180264 25
	118	1 57.8767428 5.11609451 25
	119	1 59.2551728 5.45716748 25
	120	1 45.0168751 0.645391765 25
	121	1 43.5989657 0.290248976 25
	122	1 50.3882403 5.80405685 25
	123	1 51.37843 4.77502155 25
	124	1 50.9845928 3.41072968 25
	125	1 56.1044757 3.41072968 25
	126	1 55.7106385 2.04643781 25
	127	1 55.1198828 4.43394858 25
	128	1 53.7414528 4.09287561 25
	129	1 46.8141933 2.3650813 25
	130	1 47.7874059 1.34734402 25
	131	1 49.2047274 1.69950001 25
	132	1 49.5868459 3.064877 25
	133	1 37.0314224 8.76693127 25
	134	1 36.6487306 7.39572529 25
	135	1 34.8436837 5.67118419 25
	136	1 35.2287963 7.04883853 25
	137	1 41.8074055 7.43855627 25
	138	1 42.4050321 5.05552686 25
	139	1 41.4287844 6.0744023 25
	140	1 43.8208578 5.41078757 25
	141	1 43.2207336 7.79470054 25
	142	1 44.1996328 6.77451439 25
	143	1 30.2119637 8.31397605 25
	144	1 40.2327383 1.97136001 25
	145	1 41.2046707 0.95342284 25
	146	1 38.8075393 1.61688385 25
	147	1 38.430011 0.257816404 25
	148	1 4.48628005 5.79824045 25
	149	1 3.89552434 3.41072968 25
	150	1 3.10785006 6.13931342 25
	151	1 4.88011719 4.43394858 25
	152	1 2.12325721 5.11609451 25
	153	1 2.51709435 3.75180264 25
	154	1 0.154071517 3.06965671 25
	155	1 0.350990087 6.82145935 25
	156	1 1.33558293 7.84467825 25
	157	1 7.24314002 5.11609451 25
	158	1 8.62157001 4.77502155 25
	159	1 9.01540715 3.41072968 25
	160	1 6.25854718 4.09287561 25
	161	1 8.0308143 2.38751077 25
	162	1 6.65238432 2.72858374 25
	163	1 22.7869856 5.24913923 25
	164	1 21.7666094 4.18195227 25
	165	1 20.3820111 4.53491911 25
	166	1 58.0736614 1.36429187 25
	167	1 59.0582542 0.341072968 25
	168	1 59.8459285 3.06965671 25
	169	1 58.4674985 2.72858374 25
	170	1 48.9868963 5.44245598 25
	171	1 48.6128951 4.08496509 25
	172	1 48.0013457 6.46533379 25
	173	1 46.5926304 6.10900764 25
	174	1 46.2141935 4.74705611 25
	175	1 47.1906442 3.72642291 25
	176	1 51.9691857 2.38751077 25
	177	1 54.3322085 1.70536484 25
	178	1 51.5753486 1.0232189 25
	179	1 53.3476157 2.72858374 25
	180	1 52.5599414 8.8817842e-15 25
	181	1 53.9383714 0.341072968 25
	182	1 37.6183874 6.38237648 25
	183	1 39.6340977 4.35462232 25
	184	1 39.0377849 6.73711269 25
	185	1 40.0126768 5.71947058 25
	186	1 23.3495113 7.61629777 25
	187	1 22.3959013 6.57224565 25
	188	1 19.1785268 8.61287116 25
	189	1 18.5792522 6.22019379 25
	190	1 18.1861936 7.56157626 25
	191	1 19.9895546 5.87060721 25
	192	1 20.9689414 6.92057136 25
	193	1 20.5758933 8.26301323 25
	194	1 37.8435577 2.63314754 25
	195	1 38.2218777 3.99978756 25
	196	1 37.2417803 5.01720431 25
	197	1 35.8340856 4.6594085 25
	198	1 36.401161 2.28034465 25
	199	1 35.4636293 3.28954044 25
	200	1 32.8534308 7.73140647 25
	201	1 31.9412074 8.73123175 25
	202	1 34.2689236 8.05865556 25
